# vtk DataFile Version 4.1
vtk output
ASCII
DATASET POLYDATA
POINTS 1002 float
46.5696 94.6086 95.3623 50.032 97.9261 104.568 43.9244 104.539 92.7333 
45.791 106.202 104.143 51.5966 100.978 98.5284 49.9408 106.253 96.4619 
40.1703 96.6499 103.626 39.886 101.859 102.628 53.4344 103.903 105.434 
47.7197 101.305 90.0023 44.4849 101.171 108.582 42.6334 98.621 94.5687 
46.5625 95.5723 96.0635 46.5975 96.4179 96.9466 46.6885 97.2074 97.9662 
46.9363 97.7362 99.1322 47.4574 97.9558 100.478 48.1881 97.9589 101.773 
48.8476 97.6927 102.765 49.3249 97.4337 103.47 49.6905 97.5551 104.049 
46.6974 95.5238 95.4389 46.9935 96.3977 95.6577 47.5355 97.1743 96.0068 
48.0665 97.9773 96.4769 48.6321 98.7286 96.9937 49.3542 99.2846 97.4698 
50.0194 99.7614 97.855 50.5706 100.218 98.1331 51.098 100.63 98.3546 
46.4043 94.5488 95.7944 46.1554 94.7437 96.411 45.7526 95.236 97.2427 
45.207 95.7623 98.1713 44.5532 96.2675 99.1286 43.8 96.6823 100.201 
42.8478 96.9311 101.374 41.8436 96.8985 102.399 40.9183 96.7175 103.125 
46.6661 94.2963 94.7729 46.8654 94.4006 94.2357 47.1433 94.9736 93.687 
47.2816 95.8766 93.0163 47.3667 96.8384 92.3151 47.4771 97.8781 91.7418 
47.5159 98.8911 91.2367 47.5509 99.7903 90.754 47.6385 100.587 90.3554 
46.4611 93.523 95.0408 46.1582 92.8191 94.7959 45.6716 93.0518 94.5189 
45.2214 94.1396 94.2424 44.7833 95.2578 94.164 44.2759 96.2155 94.2135 
43.8221 97.0561 94.2649 43.4 97.6575 94.3532 42.9785 98.1458 94.4598 
50.6094 97.9008 104.099 51.2456 97.8846 103.57 51.8513 97.8948 102.95 
52.2024 98.1655 102.31 52.2517 98.765 101.714 52.1166 99.4363 101.17 
51.9962 99.9318 100.547 51.9056 100.331 99.8425 51.7528 100.699 99.1492 
49.2129 97.8231 104.665 48.2568 97.8462 104.678 47.1858 97.9196 104.594 
46.0672 97.8485 104.487 44.8685 97.685 104.369 43.7218 97.5301 104.266 
42.7427 97.3234 104.19 41.7913 97.098 104.068 40.8732 96.8563 103.895 
50.7151 98.2647 104.803 51.3842 98.6137 105.049 52.002 99.0611 105.287 
52.5854 99.6235 105.497 53.1494 100.179 105.765 53.562 100.842 105.932 
53.7176 101.716 105.931 53.724 102.644 105.812 53.6278 103.37 105.655 
49.8666 98.218 105.145 49.5464 98.4979 105.712 49.0142 98.8273 106.231 
48.3587 99.218 106.709 47.6958 99.5579 107.188 47.0087 99.8641 107.631 
46.3311 100.186 108.001 45.6768 100.486 108.307 45.0468 100.803 108.503 
44.081 104.684 93.7857 44.2387 104.895 94.9764 44.423 105.081 96.2755 
44.6835 105.228 97.6624 44.91 105.431 98.9972 45.0872 105.654 100.222 
45.2497 105.886 101.334 45.3997 106.102 102.411 45.5598 106.206 103.375 
44.3048 104.807 92.5479 44.7611 105.05 92.519 45.2693 105.312 92.6893 
45.8342 105.615 93.0256 46.4711 105.925 93.4561 47.1502 106.165 94.0245 
47.8853 106.289 94.6898 48.6449 106.319 95.3616 49.3605 106.315 95.945 
43.707 104.284 93.6802 43.5001 104.015 94.8033 43.1582 103.826 95.9357 
42.6736 103.685 97.0294 42.2834 103.408 98.2424 41.9306 103.024 99.5169 
41.4339 102.678 100.583 40.8519 102.415 101.401 40.3437 102.159 102.074 
44.0318 104.593 91.5834 44.1906 104.622 90.3928 44.3094 104.623 89.2426 
44.513 104.586 88.4827 45.0736 104.352 88.3953 45.7465 103.838 88.7369 
46.3129 103.187 89.0679 46.8297 102.513 89.3516 47.3275 101.879 89.6819 
43.6029 104.271 92.3387 43.2691 103.882 92.1015 42.9714 103.37 92.0604 
42.6732 102.782 92.1653 42.3298 102.086 92.3402 42.1344 101.227 92.6612 
42.168 100.362 93.1421 42.3157 99.683 93.6382 42.4766 99.1177 94.123 
46.2593 106.456 103.655 46.7107 106.748 103.045 47.1544 106.947 102.29 
47.6768 106.958 101.365 48.2419 106.966 100.334 48.7545 107.025 99.3499 
49.1675 106.896 98.5564 49.4899 106.633 97.8458 49.7362 106.437 97.1261 
45.1714 105.942 104.162 44.5493 105.586 104.139 43.8752 105.169 104.059 
43.1434 104.751 103.969 42.4398 104.304 103.851 41.7847 103.808 103.632 
41.1495 103.312 103.392 40.6234 102.811 103.183 40.2246 102.313 102.929 
46.4186 106.287 104.506 47.1921 106.314 104.834 48.0744 106.254 105.12 
49.0237 106.084 105.318 49.9728 105.812 105.438 50.8237 105.46 105.546 
51.585 105.074 105.577 52.3019 104.678 105.561 52.922 104.283 105.531 
45.711 105.981 104.827 45.6524 105.64 105.503 45.547 105.184 106.121 
45.4118 104.689 106.727 45.2713 104.155 107.317 45.0849 103.578 107.801 
44.8691 103.048 108.182 44.6933 102.476 108.481 44.5584 101.815 108.638 
51.7754 101.34 98.2089 51.916 101.809 97.8548 51.998 102.404 97.5014 
51.9446 103.097 97.2117 51.7271 103.828 96.9989 51.4496 104.537 96.8073 
51.1681 105.163 96.6059 50.8348 105.668 96.4471 50.4105 106.037 96.3922 
52.1675 101.133 99.0261 52.7507 101.352 99.6028 53.2837 101.632 100.354 
53.7609 101.931 101.123 54.1974 102.354 101.819 54.536 102.897 102.628 
54.6172 103.324 103.531 54.3647 103.575 104.348 53.9119 103.758 104.942 
51.1641 100.982 97.7405 50.7321 100.959 96.8106 50.3075 100.964 95.8397 
49.8476 101.013 94.8908 49.4342 100.982 93.8534 49.2076 100.904 92.7149 
49.069 100.87 91.5912 48.7668 100.936 90.7027 48.3059 101.086 90.2031 
50.3754 106.276 97.3643 50.8668 106.239 98.3441 51.4389 106.203 99.34 
51.9834 106.135 100.356 52.4626 105.931 101.423 52.8578 105.6 102.51 
53.1228 105.191 103.493 53.3192 104.743 104.267 53.4265 104.309 104.892 
49.766 106.012 95.5527 49.469 105.635 94.7169 49.1612 105.259 93.8259 
48.9122 104.84 92.8348 48.6749 104.347 91.8882 48.4982 103.852 91.0506 
48.4446 103.249 90.308 48.3788 102.534 89.8487 48.1519 101.857 89.7651 
39.3352 96.6255 103.623 38.5551 96.844 103.501 37.9451 97.2767 103.357 
37.6037 97.9581 103.26 37.6353 98.8199 103.217 37.9832 99.6409 103.162 
38.4429 100.281 103.062 38.9074 100.841 102.912 39.403 101.373 102.753 
39.9417 96.8732 104.235 39.8946 97.1315 104.901 40.0348 97.379 105.616 
40.334 97.7929 106.29 40.8241 98.3437 106.876 41.4845 98.8665 107.428 
42.2589 99.4337 107.863 43.0804 100.05 108.144 43.847 100.633 108.366 
40.0274 96.4748 102.996 40.0679 96.498 102.245 40.3237 96.765 101.369 
40.8283 97.1328 100.38 41.3562 97.3178 99.3008 41.816 97.5138 98.219 
42.2112 97.8414 97.2272 42.4518 98.1217 96.2916 42.5764 98.3666 95.395 
39.7169 101.812 103.371 39.6515 101.79 104.255 39.6772 101.802 105.202 
39.8826 101.766 106.07 40.3584 101.649 106.778 40.9536 101.548 107.409 
41.6668 101.451 107.91 42.5892 101.346 108.219 43.5635 101.256 108.437 
39.9013 101.573 102.006 40.0383 101.242 101.361 40.2301 100.938 100.624 
40.4894 100.677 99.7472 40.8374 100.349 98.7907 41.2139 99.9351 97.8284 
41.6036 99.5463 96.8841 41.9833 99.2188 96.0034 42.3173 98.9173 95.223 
53.0402 103.718 106.044 52.5804 103.529 106.691 52.0192 103.322 107.266 
51.2437 103.08 107.763 50.1997 102.756 108.145 49.0924 102.427 108.405 
47.9329 102.123 108.629 46.6634 101.794 108.761 45.4888 101.473 108.723 
46.9796 101.098 90.1231 46.1688 100.824 90.2682 45.4468 100.416 90.396 
44.8157 99.9038 90.5517 44.0326 99.3455 90.6599 43.2896 98.8475 90.9636 
42.9748 98.6183 91.7481 42.9237 98.6038 92.7553 42.8398 98.6231 93.6987 
46.8484 96.262 96.2705 47.2771 97.0503 96.5992 46.9791 97.0821 97.2388 
47.7876 97.8436 97.0627 47.4911 97.7939 97.6952 47.1769 97.7931 98.3488 
48.317 98.5818 97.6143 48.0478 98.4679 98.258 47.8384 98.3017 98.918 
47.6667 98.0846 99.6471 49.1702 99.0103 98.0917 48.8854 98.8548 98.7727 
48.6793 98.6423 99.4932 48.6067 98.3071 100.213 48.5074 98.0277 100.985 
50.0249 99.398 98.4762 49.9584 99.056 99.141 49.7612 98.809 99.9068 
49.5834 98.4842 100.604 49.5092 98.1075 101.322 49.2965 97.8398 102.062 
50.6665 99.86 98.7883 50.7413 99.442 99.4668 50.7213 99.0881 100.22 
50.5886 98.6932 100.897 50.4656 98.1838 101.478 50.2772 97.8059 102.151 
49.8924 97.57 102.866 51.2135 100.322 99.0213 51.3303 99.9104 99.7056 
51.4132 99.4882 100.41 51.4351 99.0151 101.083 51.4436 98.3831 101.633 
51.2756 97.881 102.22 50.8898 97.6704 102.892 50.3002 97.5879 103.522 
46.7462 95.4937 94.8259 46.9893 95.6899 94.2935 47.1075 96.51 95.0683 
47.3356 96.1508 93.6996 47.3976 96.7326 94.5215 47.7268 97.3188 95.415 
47.6146 96.8891 92.9521 47.737 97.2141 93.8578 47.9897 97.6459 94.7786 
48.3131 98.1911 95.8345 47.8362 97.8029 92.2658 47.9981 97.9709 93.1329 
48.2147 98.2105 94.0886 48.5449 98.5562 95.0956 48.89 98.9984 96.3095 
47.9745 98.75 91.6849 48.1956 98.805 92.4933 48.3893 98.9227 93.4774 
48.7521 99.059 94.4446 49.1465 99.3083 95.5548 49.5396 99.5917 96.7925 
48.0857 99.5954 91.0948 48.3925 99.5708 91.828 48.5732 99.6339 92.8733 
48.8754 99.7049 93.9284 49.3379 99.7718 94.945 49.7443 99.8839 96.0365 
50.1204 100.091 97.1719 48.2255 100.365 90.5836 48.6409 100.259 91.1725 
48.8456 100.266 92.1833 49.0087 100.345 93.3414 49.3708 100.412 94.4284 
49.8471 100.405 95.418 50.2475 100.46 96.4547 50.6534 100.57 97.4709 
48.6154 101.704 90.2371 48.6979 102.427 90.6455 48.9693 101.585 91.0568 
48.7525 103.152 91.3268 48.9809 102.355 91.6891 49.2249 101.538 92.1293 
48.9937 103.756 92.0927 49.2044 103.092 92.3777 49.3959 102.305 92.7604 
49.5175 101.54 93.2574 49.2776 104.316 92.9361 49.6168 103.712 93.0923 
49.8586 103.002 93.3613 49.9751 102.21 93.8258 49.9238 101.559 94.3874 
49.522 104.816 93.882 49.9343 104.252 93.9516 50.2982 103.578 94.0725 
50.4914 102.823 94.4064 50.4841 102.113 94.9251 50.3869 101.525 95.4147 
49.8457 105.25 94.7601 50.2253 104.748 94.852 50.5871 104.124 94.9586 
50.8512 103.409 95.1552 50.9516 102.68 95.5292 50.9261 102.024 95.9776 
50.853 101.446 96.3996 50.1904 105.685 95.5522 50.5636 105.235 95.6588 
50.8766 104.665 95.83 51.1486 103.994 96.0214 51.3581 103.266 96.2628 
51.4437 102.554 96.5948 51.4177 101.919 96.9815 51.3182 101.396 97.3713 
52.3563 101.576 98.7023 52.513 102.142 98.3545 52.963 101.868 99.2873 
52.5459 102.848 98.0462 53.0691 102.561 98.9714 53.477 102.232 100.068 
52.367 103.616 97.8333 52.9616 103.388 98.7357 53.4475 103.069 99.8257 
53.8348 102.699 100.899 52.0577 104.382 97.6777 52.6969 104.198 98.5753 
53.2431 103.966 99.6469 53.7077 103.646 100.734 54.1543 103.289 101.71 
51.744 105.083 97.5214 52.3803 104.935 98.4469 52.9673 104.726 99.4703 
53.4662 104.446 100.577 53.9363 104.13 101.629 54.3854 103.786 102.619 
[...]
POINT_DATA 1002
SCALARS Color_Map_Phi float
LOOKUP_TABLE default
6.28319 3.14159 6.28319 3.14159 4.71239 4.71239 1.5708 1.5708 3.69517 
5.72961 2.58802 0.553574 6.28319 6.28319 6.28319 6.28319 3.14159 3.14159 
3.14159 3.14159 3.14159 6.1053 5.8988 5.67687 5.45995 5.26596 5.10322 
4.97131 4.86569 4.78095 0.177881 0.384387 0.606312 0.823235 1.01722 1.17997 
1.31187 1.4175 1.50223 6.18928 6.10703 6.03531 5.97283 5.91832 5.87061 
5.82869 5.79168 5.75886 0.0939024 0.176153 0.247873 0.310351 0.364864 0.412573 
0.454497 0.491504 0.524326 3.31947 3.52598 3.7479 3.96483 4.15881 4.32156 
4.45346 4.55909 4.64383 2.96371 2.75721 2.53528 2.31836 2.12437 1.96162 
1.82972 1.72409 1.63936 3.2355 3.31775 3.38947 3.45194 3.50646 3.55417 
3.59609 3.6331 3.66592 3.04769 2.96544 2.89372 2.83124 2.77673 2.72902 
2.6871 2.65009 2.61727 6.28319 6.28319 6.28319 6.28319 3.14159 3.14159 
3.14159 3.14159 3.14159 6.1053 5.8988 5.67687 5.45995 5.26596 5.10322 
4.97131 4.86569 4.78095 0.177881 0.384387 0.606312 0.823235 1.01722 1.17997 
1.31187 1.4175 1.50223 6.18928 6.10703 6.03531 5.97283 5.91832 5.87061 
5.82869 5.79168 5.75886 0.0939024 0.176153 0.247873 0.310351 0.364864 0.412573 
0.454497 0.491504 0.524326 3.31947 3.52598 3.7479 3.96483 4.15881 4.32156 
4.45346 4.55909 4.64383 2.96371 2.75721 2.53528 2.31836 2.12437 1.96162 
1.82972 1.72409 1.63936 3.2355 3.31775 3.38947 3.45194 3.50646 3.55417 
3.59609 3.6331 3.66592 3.04769 2.96544 2.89372 2.83124 2.77673 2.72902 
2.6871 2.65009 2.61727 4.71239 4.71239 4.71239 4.71239 4.71239 4.71239 
4.71239 4.71239 4.71239 4.60879 4.49914 4.3857 4.27128 4.15881 4.05096 
3.94976 3.85646 3.77161 4.81599 4.92564 5.03907 5.1535 5.26596 5.37381 
5.47502 5.56831 5.65317 4.60879 4.49914 4.3857 4.27128 4.15881 4.05096 
3.94976 3.85646 3.77161 4.81599 4.92564 5.03907 5.1535 5.26596 5.37381 
5.47502 5.56831 5.65317 1.5708 1.5708 1.5708 1.5708 1.5708 1.5708 
1.5708 1.5708 1.5708 1.6744 1.78405 1.89748 2.01191 2.12437 2.23222 
2.33343 2.42672 2.51157 1.4672 1.35755 1.24411 1.12969 1.01722 0.909371 
0.808166 0.714871 0.63002 1.6744 1.78405 1.89748 2.01191 2.12437 2.23222 
2.33343 2.42672 2.51157 1.4672 1.35755 1.24411 1.12969 1.01722 0.909371 
0.808166 0.714871 0.63002 3.60077 3.49669 3.38395 3.26458 3.14159 3.01861 
2.89924 2.78649 2.68241 5.82401 5.92808 6.04083 6.1602 6.28319 0.122983 
0.242354 0.355101 0.459179 6.05603 5.78856 5.97021 5.51259 5.60297 5.78856 
5.26596 5.26596 5.26596 5.26596 5.06749 5.0121 4.91556 4.71239 4.15881 
4.91556 4.83537 4.71239 4.50922 4.15881 3.63622 4.80045 4.71239 4.58941 
4.41268 4.15881 3.82181 3.45456 4.71239 4.62433 4.50922 4.35729 4.15881 
3.91219 3.63622 3.36875 6.01742 5.94343 5.82633 5.88092 5.76745 5.62798 
5.8278 5.71897 5.58911 5.43724 5.78235 5.67854 5.55757 5.41926 5.26596 
5.74316 5.64441 5.5315 5.40467 5.26596 5.11955 5.70914 5.61528 5.50962 
5.3926 5.26596 5.13292 4.99789 5.67937 5.59016 5.49102 5.38246 5.26596 
5.14407 5.02016 4.89798 5.56831 5.47502 5.47502 5.37381 5.37381 5.37381 
5.26596 5.26596 5.26596 5.26596 5.1535 5.1535 5.1535 5.1535 5.1535 
5.03907 5.03907 5.03907 5.03907 5.03907 5.03907 4.92564 4.92564 4.92564 
4.92564 4.92564 4.92564 4.92564 4.81599 4.81599 4.81599 4.81599 4.81599 
4.81599 4.81599 4.81599 4.60879 4.60879 4.49914 4.60879 4.49914 4.3857 
4.60879 4.49914 4.3857 4.27128 4.60879 4.49914 4.3857 4.27128 4.15881 
4.60879 4.49914 4.3857 4.27128 4.15881 4.05096 4.60879 4.49914 4.3857 
4.27128 4.15881 4.05096 3.94976 4.60879 4.49914 4.3857 4.27128 4.15881 
4.05096 3.94976 3.85646 4.5268 4.40462 4.42689 4.28071 4.29185 4.30523 
4.15881 4.15881 4.15881 4.15881 4.04232 4.03217 4.02011 4.00552 3.98753 
3.93376 3.91515 3.89328 3.86721 3.83566 3.7968 3.83461 3.8095 3.78037 
3.74624 3.70581 3.65733 3.59845 3.7454 3.71564 3.68161 3.64243 3.59698 
3.54386 3.48135 3.40735 3.56428 3.45246 3.52338 3.33203 3.40312 3.47739 
3.20576 3.27463 3.34802 3.42551 3.07742 3.14159 3.21128 3.28647 3.36688 
2.95116 3.00855 3.0719 3.14159 3.21784 3.3006 2.83072 2.88006 2.93517 
2.99672 3.06535 3.14159 3.22575 2.7189 2.7598 2.8058 2.85768 2.9163 
2.98259 3.05743 3.14159 3.56428 3.52338 3.45246 3.47739 3.40312 3.33203 
3.42551 3.34802 3.27463 3.20576 3.36688 3.28647 3.21128 3.14159 3.07742 
3.3006 3.21784 3.14159 3.0719 3.00855 2.95116 3.22575 3.14159 3.06535 
2.99672 2.93517 2.88006 2.83072 3.14159 3.05743 2.98259 2.9163 2.85768 
2.8058 2.7598 2.7189 4.5268 4.42689 4.40462 4.30523 4.29185 4.28071 
4.15881 4.15881 4.15881 4.15881 3.98753 4.00552 4.02011 4.03217 4.04232 
3.7968 3.83566 3.86721 3.89328 3.91515 3.93376 3.59845 3.65733 3.70581 
3.74624 3.78037 3.8095 3.83461 3.40735 3.48135 3.54386 3.59698 3.64243 
3.68161 3.71564 3.7454 4.71239 4.80045 4.62433 4.91556 4.71239 4.50922 
5.06749 4.83537 4.58941 4.35729 5.26596 5.0121 4.71239 4.41268 4.15881 
5.51259 5.26596 4.91556 4.50922 4.15881 3.91219 5.78856 5.60297 5.26596 
4.71239 4.15881 3.82181 3.63622 6.05603 5.97021 5.78856 5.26596 4.15881 
3.63622 3.45456 3.36875 0.227158 0.494626 0.312971 0.770593 0.680215 0.494626 
1.01722 1.01722 1.01722 1.01722 1.2157 1.27109 1.36763 1.5708 2.12437 
1.36763 1.44781 1.5708 1.77397 2.12437 2.64697 1.48273 1.5708 1.69378 
1.8705 2.12437 2.46138 2.82862 1.5708 1.65886 1.77397 1.9259 2.12437 
2.371 2.64697 2.91443 1.75639 1.87857 1.8563 2.00248 1.99133 1.97796 
2.12437 2.12437 2.12437 2.12437 2.24087 2.25101 2.26308 2.27767 2.29565 
2.34943 2.36803 2.38991 2.41597 2.44752 2.48639 2.44857 2.47368 2.50281 
2.53694 2.57738 2.62586 2.68474 2.53778 2.56754 2.60157 2.64076 2.68621 
2.73933 2.80184 2.87583 1.6744 1.6744 1.78405 1.6744 1.78405 1.89748 
1.6744 1.78405 1.89748 2.01191 1.6744 1.78405 1.89748 2.01191 2.12437 
1.6744 1.78405 1.89748 2.01191 2.12437 2.23222 1.6744 1.78405 1.89748 
2.01191 2.12437 2.23222 2.33343 1.6744 1.78405 1.89748 2.01191 2.12437 
2.23222 2.33343 2.42672 1.4672 1.35755 1.4672 1.24411 1.35755 1.4672 
1.12969 1.24411 1.35755 1.4672 1.01722 1.12969 1.24411 1.35755 1.4672 
0.909371 1.01722 1.12969 1.24411 1.35755 1.4672 0.808166 0.909371 1.01722 
1.12969 1.24411 1.35755 1.4672 0.714871 0.808166 0.909371 1.01722 1.12969 
1.24411 1.35755 1.4672 0.603812 0.57405 0.693022 0.540021 0.667908 0.792164 
0.500837 0.638778 0.773562 0.900726 0.455383 0.604649 0.751687 0.890581 1.01722 
0.402264 0.564217 0.725619 0.878514 1.01722 1.13912 0.339753 0.515737 0.694072 
0.863926 1.01722 1.15026 1.26302 0.265762 0.456853 0.655207 0.845941 1.01722 
1.16363 1.28529 1.38521 0.227158 0.312971 0.494626 0.494626 0.680215 0.770593 
1.01722 1.01722 1.01722 1.01722 2.12437 1.5708 1.36763 1.27109 1.2157 
2.64697 2.12437 1.77397 1.5708 1.44781 1.36763 2.82862 2.46138 2.12437 
1.8705 1.69378 1.5708 1.48273 2.91443 2.64697 2.371 2.12437 1.9259 
1.77397 1.65886 1.5708 1.75639 1.8563 1.87857 1.97796 1.99133 2.00248 
2.12437 2.12437 2.12437 2.12437 2.29565 2.27767 2.26308 2.25101 2.24087 
2.48639 2.44752 2.41597 2.38991 2.36803 2.34943 2.68474 2.62586 2.57738 
2.53694 2.50281 2.47368 2.44857 2.87583 2.80184 2.73933 2.68621 2.64076 
2.60157 2.56754 2.53778 5.86049 5.90139 5.97231 5.94739 6.02165 6.09275 
5.99927 6.07676 6.15015 6.21902 6.0579 6.13831 6.2135 0 0.0641696 
6.12418 6.20694 6.28319 0.069689 0.13304 0.190437 6.19903 0 0.0762451 
0.144876 0.206423 0.261531 0.310872 0 0.0841597 0.159004 0.225289 0.283913 
0.335793 0.381792 0.422692 5.86049 5.97231 5.90139 6.09275 6.02165 5.94739 
6.21902 6.15015 6.07676 5.99927 0.0641696 0 6.2135 6.13831 6.0579 
0.190437 0.13304 0.069689 6.28319 6.20694 6.12418 0.310872 0.261531 0.206423 
0.144876 0.0762451 6.28319 6.19903 0.422692 0.381792 0.335793 0.283913 0.225289 
0.159004 0.0841597 0 5.67937 5.70914 5.59016 5.74316 5.61528 5.49102 
5.78235 5.64441 5.50962 5.38246 5.8278 5.67854 5.5315 5.3926 5.26596 
5.88092 5.71897 5.55757 5.40467 5.26596 5.14407 5.94343 5.76745 5.58911 
5.41926 5.26596 5.13292 5.02016 6.01742 5.82633 5.62798 5.43724 5.26596 
5.11955 4.99789 4.89798 1.38521 1.28529 1.26302 1.16363 1.15026 1.13912 
1.01722 1.01722 1.01722 1.01722 0.845941 0.863926 0.878514 0.890581 0.900726 
0.655207 0.694072 0.725619 0.751687 0.773562 0.792164 0.456853 0.515737 0.564217 
0.604649 0.638778 0.667908 0.693022 0.265762 0.339753 0.402264 0.455383 0.500837 
0.540021 0.57405 0.603812 
