# vtk DataFile Version 4.1
vtk output
ASCII
DATASET POLYDATA
POINTS 1002 float
46.3916 95.7318 96.1918 49.8197 98.034 104.899 43.6366 102.969 93.2738 
45.2026 106.722 101.411 50.8711 100.726 99.679 48.968 104.838 97.2498 
41.7764 98.3706 102.245 39.5046 102.209 100.403 52.1071 104.391 103.456 
46.9908 99.1871 91.211 44.8152 102.86 105.472 42.7102 97.9146 94.1726 
46.334 96.5813 96.7691 46.3717 97.3772 97.6385 46.4993 98.0144 98.8625 
46.7794 98.3994 100.306 47.3477 98.4843 101.632 48.1389 98.2238 102.546 
48.8095 97.8227 103.127 49.2393 97.6581 103.747 49.5537 97.7943 104.401 
46.5904 96.2202 96.2719 46.7615 96.8898 96.4982 47.0061 97.6815 96.8544 
47.4041 98.3608 97.4274 47.8305 98.9714 98.15 48.2872 99.5638 98.8128 
48.9522 99.9802 99.2648 49.7851 100.173 99.4859 50.4559 100.387 99.5908 
46.0906 95.8792 96.536 45.7674 96.1008 97.0108 45.4268 96.4763 97.5578 
44.9195 96.9585 98.1051 44.3424 97.3491 98.8504 43.8915 97.6803 99.7364 
43.437 97.9594 100.497 42.867 98.0978 101.165 42.2797 98.1911 101.777 
46.6103 95.0497 95.6298 46.7589 94.2318 94.9724 46.972 93.5736 94.4525 
47.2413 93.6742 94.0922 47.2825 94.5676 93.5507 47.1759 95.6576 92.8785 
47.1456 96.6767 92.2871 47.1244 97.6325 91.8083 47.0501 98.4797 91.4592 
46.2519 94.9835 95.8826 45.9083 94.4651 95.5822 45.4536 94.3537 95.2175 
45.0294 94.4969 94.8207 44.5613 94.7859 94.4919 44.0151 95.2786 94.2332 
43.5567 95.9085 94.0342 43.2225 96.596 93.9769 42.9437 97.3004 94.0499 
50.3097 98.0869 104.475 50.8435 98.179 103.896 51.3101 98.4016 103.304 
51.6199 98.7584 102.776 51.7711 99.1587 102.27 51.7553 99.5735 101.788 
51.5884 99.9909 101.324 51.3449 100.32 100.817 51.1022 100.539 100.242 
49.1538 97.7581 104.952 48.4218 97.441 104.941 47.7255 97.4182 104.784 
47.0351 97.839 104.421 46.1614 98.274 103.945 45.0656 98.3838 103.556 
44.0358 98.3168 103.199 43.1635 98.2589 102.859 42.4104 98.2676 102.556 
50.3482 98.3695 105.033 50.8776 98.799 105.104 51.3897 99.4044 105.125 
51.8242 100.103 105.061 52.1248 100.932 104.873 52.3667 101.891 104.655 
52.4972 102.725 104.416 52.4214 103.34 104.091 52.2447 103.864 103.739 
49.6599 98.238 105.298 49.373 98.5248 105.664 48.889 98.9868 105.977 
48.4212 99.7048 105.947 48.1653 100.506 105.582 47.8085 101.236 105.315 
47.1778 101.813 105.249 46.3755 102.196 105.288 45.5369 102.495 105.387 
43.6833 103.231 94.104 43.7737 103.526 95.0473 43.8677 103.931 95.997 
43.9874 104.4 96.9408 44.1671 104.847 97.8909 44.3678 105.301 98.7567 
44.5876 105.747 99.5376 44.8079 106.146 100.244 44.996 106.482 100.854 
43.9739 103.172 93.1994 44.3582 103.409 93.2389 44.7604 103.689 93.4106 
45.2573 103.962 93.7318 45.9084 104.204 94.2527 46.5235 104.353 94.9635 
47.0932 104.465 95.6729 47.7131 104.615 96.2801 48.3579 104.764 96.7984 
43.3552 102.917 93.9464 43.1107 102.808 94.7782 42.8241 102.693 95.6794 
42.4204 102.646 96.5657 41.9768 102.614 97.4411 41.5028 102.529 98.2746 
40.9543 102.438 98.9784 40.3986 102.376 99.5272 39.9173 102.298 99.9851 
43.8134 102.828 92.4089 43.9736 102.726 91.4508 44.1269 102.64 90.4178 
44.4931 102.439 89.6724 45.1577 102.098 89.4886 45.7867 101.593 89.6817 
46.2063 100.909 90.0327 46.5257 100.218 90.4642 46.7751 99.6587 90.882 
43.4393 102.641 92.9165 43.2227 102.239 92.6369 42.9529 101.805 92.4674 
42.709 101.336 92.4565 42.5467 100.716 92.5757 42.4183 99.9863 92.7984 
42.4071 99.319 93.1459 42.5181 98.7976 93.5524 42.6297 98.3612 93.899 
45.6052 106.839 101 46.0553 106.929 100.485 46.596 106.926 99.9739 
47.1809 106.758 99.5849 47.7139 106.483 99.1766 48.1197 106.185 98.7021 
48.3989 105.865 98.2673 48.6255 105.531 97.8834 48.8298 105.18 97.5408 
44.6334 106.469 101.418 44.0396 106.131 101.389 43.4794 105.628 101.325 
42.8609 105.09 101.237 42.1563 104.598 101.145 41.4738 104.11 101.046 
40.8729 103.618 100.918 40.3418 103.147 100.752 39.8911 102.669 100.572 
45.7558 106.954 101.783 46.4493 107.113 102.214 47.3174 107.162 102.662 
48.3263 107.1 102.982 49.3042 106.895 103.119 50.0916 106.555 103.257 
50.7729 106.125 103.464 51.3621 105.569 103.542 51.7711 104.948 103.498 
45.1348 106.702 102.019 45.1081 106.538 102.658 45.0903 106.266 103.223 
45.063 105.912 103.709 44.9988 105.463 104.199 44.8827 105.012 104.656 
44.7726 104.597 105.067 44.7054 104.089 105.384 44.709 103.46 105.517 
50.874 101.144 99.4309 50.8765 101.559 99.1594 50.9135 101.947 98.8091 
50.9117 102.41 98.4081 50.8123 102.912 98.05 50.6068 103.406 97.7868 
50.258 103.92 97.6048 49.8173 104.346 97.4648 49.3893 104.629 97.3401 
51.3359 101.032 100.127 51.9436 101.316 100.546 52.6784 101.539 100.812 
53.3258 101.867 101.005 53.6877 102.463 101.393 53.7476 103.108 101.984 
53.5274 103.516 102.501 53.0661 103.789 102.874 52.5458 104.083 103.184 
50.3832 100.661 99.0827 49.7764 100.575 98.3772 49.1305 100.492 97.5169 
48.63 100.27 96.4502 48.3014 99.8895 95.2006 48.0181 99.5515 94.0602 
47.6948 99.3501 93.2104 47.3824 99.2231 92.4278 47.1749 99.1753 91.7009 
49.5298 105.083 97.8037 50.1304 105.331 98.3282 50.6978 105.538 98.9284 
51.2287 105.67 99.6165 51.7042 105.714 100.311 52.0406 105.638 101.103 
52.2309 105.438 101.99 52.2957 105.131 102.675 52.2331 104.754 103.092 
48.6894 104.457 96.667 48.3871 104.014 95.9941 48.0754 103.499 95.2455 
47.7762 102.949 94.435 47.5509 102.398 93.5547 47.3707 101.828 92.7044 
47.2323 101.222 92.0489 47.1394 100.545 91.6197 47.0578 99.8491 91.3475 
41.1177 98.628 102.215 40.3121 98.8194 102.154 39.4672 99.0226 102.051 
38.8109 99.3581 101.912 38.4063 99.831 101.759 38.2078 100.511 101.492 
38.2581 101.229 101.115 38.5641 101.671 100.796 39.0275 101.918 100.578 
41.7604 98.6054 102.727 41.8708 98.9807 103.069 42.0875 99.4064 103.4 
42.4228 99.8603 103.765 42.8575 100.375 104.082 43.3337 100.913 104.4 
43.7696 101.448 104.732 44.1308 101.929 105.032 44.4626 102.381 105.284 
41.5272 98.4021 101.618 41.3851 98.438 100.932 41.3559 98.399 100.217 
41.49 98.2829 99.354 41.8083 98.1485 98.332 42.1124 98.0071 97.3136 
42.2639 97.8477 96.3445 42.3878 97.7506 95.438 42.5568 97.7913 94.7171 
39.3907 102.429 100.974 39.4439 102.649 101.708 39.7256 102.82 102.486 
40.2075 102.95 103.141 40.8739 103.044 103.689 41.7029 103.077 104.18 
42.5592 103.057 104.61 43.2925 103.006 105.026 44.0086 102.925 105.344 
39.4276 101.803 99.9928 39.4355 101.391 99.5173 39.5701 100.994 98.9784 
39.9034 100.587 98.4204 40.4537 100.14 97.8304 41.0839 99.6971 97.13 
41.6275 99.278 96.2927 42.0485 98.8377 95.4171 42.3941 98.388 94.701 
51.7435 104.365 103.887 51.3055 104.347 104.315 50.7834 104.332 104.705 
50.1847 104.273 105.09 49.4547 104.166 105.42 48.5787 103.995 105.558 
47.6271 103.756 105.528 46.644 103.466 105.507 45.6654 103.146 105.521 
46.6832 98.8577 91.1315 46.1596 98.5767 91.2331 45.5565 98.2772 91.3842 
44.9948 97.962 91.5454 44.3836 97.6795 91.6971 43.7282 97.4359 91.8182 
43.2797 97.3289 92.1329 43.0978 97.4745 92.802 42.9348 97.7124 93.5445 
46.6278 97.0937 97.0817 46.9398 97.7333 97.5981 46.7153 97.9059 98.1646 
47.3103 98.3944 98.2219 47.0822 98.4655 98.867 46.8919 98.4958 99.5068 
47.7598 98.9697 98.8978 47.5246 98.977 99.5769 47.3561 98.9272 100.19 
47.3308 98.7404 100.92 48.2611 99.5011 99.5159 48.1113 99.422 100.17 
47.9705 99.3003 100.77 47.9932 99.0249 101.425 48.078 98.6502 102.054 
48.9201 99.9414 99.9746 48.8682 99.7792 100.599 48.7892 99.5789 101.176 
48.8002 99.274 101.775 48.8445 98.8268 102.319 48.8671 98.3518 102.723 
49.7812 100.161 100.195 49.7795 99.981 100.839 49.7677 99.6936 101.39 
49.7774 99.3818 101.918 49.769 98.9439 102.413 49.6771 98.4702 102.82 
49.5091 98.0623 103.242 50.5904 100.275 100.224 50.6941 100.084 100.864 
50.7809 99.7585 101.417 50.8358 99.3938 101.897 50.8287 99.0003 102.363 
50.6938 98.551 102.823 50.4006 98.1919 103.318 49.992 97.9737 103.881 
46.6792 95.6915 95.6112 46.756 95.1518 94.9287 46.7039 96.6298 95.7005 
47.0279 94.8407 94.515 46.7992 96.3414 95.0982 46.959 97.5267 96.0507 
47.2638 95.1371 94.1175 47.1033 96.2606 94.7468 47.1115 97.3699 95.5387 
47.4188 98.2728 96.7065 47.233 95.9295 93.4884 47.22 96.6337 94.2406 
47.3396 97.4698 95.1055 47.5615 98.2934 96.1535 47.8712 99.0189 97.4704 
47.2538 96.8079 92.8643 47.2399 97.2711 93.6197 47.3966 97.8616 94.5187 
47.707 98.5313 95.6048 48.0131 99.1766 96.8213 48.3976 99.6513 98.113 
47.3444 97.661 92.3432 47.4505 97.9449 93.0926 47.5633 98.336 93.9456 
47.8039 98.8291 95.0418 48.1346 99.3998 96.2825 48.5713 99.7767 97.4633 
49.1574 99.9861 98.5528 47.2892 98.4611 91.9507 47.5377 98.6005 92.6837 
47.7754 98.8373 93.4827 47.9872 99.146 94.4861 48.2182 99.6144 95.7705 
48.6063 100.017 96.9904 49.2268 100.161 97.9822 49.8917 100.26 98.8475 
47.2138 99.8578 92.0348 47.3311 100.564 92.4695 47.4378 99.903 92.9012 
47.5321 101.264 92.9998 47.5987 100.625 93.4438 47.7903 100.035 93.7666 
47.7596 101.927 93.7286 47.8682 101.355 94.0865 48.0151 100.768 94.4492 
48.2283 100.271 94.7508 47.9901 102.539 94.6032 48.1662 102.024 94.8789 
48.3694 101.458 95.2081 48.5997 100.961 95.515 48.6854 100.585 95.9259 
48.3172 103.133 95.4232 48.5278 102.653 95.6848 48.76 102.099 95.9757 
49.0216 101.572 96.2585 49.1772 101.162 96.6093 49.1507 100.838 97.0893 
48.6941 103.708 96.1485 48.9889 103.285 96.3835 49.2425 102.764 96.658 
49.4477 102.234 96.9378 49.624 101.746 97.2553 49.6838 101.353 97.6706 
49.7148 100.98 98.0747 49.0555 104.21 96.7928 49.4317 103.856 96.9739 
49.7908 103.38 97.1891 50.0239 102.872 97.4433 50.1672 102.378 97.7566 
50.2492 101.902 98.1435 50.2855 101.487 98.5306 50.3435 101.071 98.8319 
51.3912 101.476 99.8436 51.476 101.866 99.4826 52.0492 101.745 100.214 
51.5586 102.301 99.0609 52.1166 102.171 99.8119 52.7494 102.053 100.494 
51.5398 102.864 98.6395 52.1085 102.746 99.3881 52.6854 102.654 100.175 
53.3008 102.607 100.77 51.353 103.427 98.3172 51.9622 103.428 99.0055 
52.4938 103.405 99.8347 53.1043 103.389 100.562 53.5866 103.337 101.209 
51.0012 103.984 98.1194 51.6395 104.05 98.7423 52.1866 104.125 99.5028 
52.7684 104.15 100.27 53.2938 104.089 101.024 53.5555 103.876 101.791 
[...]
POINT_DATA 1002
SCALARS Color_Map_Phi float
LOOKUP_TABLE default
6.28319 3.14159 6.28319 3.14159 4.71239 4.71239 1.5708 1.5708 3.69517 
5.72961 2.58802 0.553574 6.28319 6.28319 6.28319 6.28319 3.14159 3.14159 
3.14159 3.14159 3.14159 6.1053 5.8988 5.67687 5.45995 5.26596 5.10322 
4.97131 4.86569 4.78095 0.177881 0.384387 0.606312 0.823235 1.01722 1.17997 
1.31187 1.4175 1.50223 6.18928 6.10703 6.03531 5.97283 5.91832 5.87061 
5.82869 5.79168 5.75886 0.0939024 0.176153 0.247873 0.310351 0.364864 0.412573 
0.454497 0.491504 0.524326 3.31947 3.52598 3.7479 3.96483 4.15881 4.32156 
4.45346 4.55909 4.64383 2.96371 2.75721 2.53528 2.31836 2.12437 1.96162 
1.82972 1.72409 1.63936 3.2355 3.31775 3.38947 3.45194 3.50646 3.55417 
3.59609 3.6331 3.66592 3.04769 2.96544 2.89372 2.83124 2.77673 2.72902 
2.6871 2.65009 2.61727 6.28319 6.28319 6.28319 6.28319 3.14159 3.14159 
3.14159 3.14159 3.14159 6.1053 5.8988 5.67687 5.45995 5.26596 5.10322 
4.97131 4.86569 4.78095 0.177881 0.384387 0.606312 0.823235 1.01722 1.17997 
1.31187 1.4175 1.50223 6.18928 6.10703 6.03531 5.97283 5.91832 5.87061 
5.82869 5.79168 5.75886 0.0939024 0.176153 0.247873 0.310351 0.364864 0.412573 
0.454497 0.491504 0.524326 3.31947 3.52598 3.7479 3.96483 4.15881 4.32156 
4.45346 4.55909 4.64383 2.96371 2.75721 2.53528 2.31836 2.12437 1.96162 
1.82972 1.72409 1.63936 3.2355 3.31775 3.38947 3.45194 3.50646 3.55417 
3.59609 3.6331 3.66592 3.04769 2.96544 2.89372 2.83124 2.77673 2.72902 
2.6871 2.65009 2.61727 4.71239 4.71239 4.71239 4.71239 4.71239 4.71239 
4.71239 4.71239 4.71239 4.60879 4.49914 4.3857 4.27128 4.15881 4.05096 
3.94976 3.85646 3.77161 4.81599 4.92564 5.03907 5.1535 5.26596 5.37381 
5.47502 5.56831 5.65317 4.60879 4.49914 4.3857 4.27128 4.15881 4.05096 
3.94976 3.85646 3.77161 4.81599 4.92564 5.03907 5.1535 5.26596 5.37381 
5.47502 5.56831 5.65317 1.5708 1.5708 1.5708 1.5708 1.5708 1.5708 
1.5708 1.5708 1.5708 1.6744 1.78405 1.89748 2.01191 2.12437 2.23222 
2.33343 2.42672 2.51157 1.4672 1.35755 1.24411 1.12969 1.01722 0.909371 
0.808166 0.714871 0.63002 1.6744 1.78405 1.89748 2.01191 2.12437 2.23222 
2.33343 2.42672 2.51157 1.4672 1.35755 1.24411 1.12969 1.01722 0.909371 
0.808166 0.714871 0.63002 3.60077 3.49669 3.38395 3.26458 3.14159 3.01861 
2.89924 2.78649 2.68241 5.82401 5.92808 6.04083 6.1602 6.28319 0.122983 
0.242354 0.355101 0.459179 6.05603 5.78856 5.97021 5.51259 5.60297 5.78856 
5.26596 5.26596 5.26596 5.26596 5.06749 5.0121 4.91556 4.71239 4.15881 
4.91556 4.83537 4.71239 4.50922 4.15881 3.63622 4.80045 4.71239 4.58941 
4.41268 4.15881 3.82181 3.45456 4.71239 4.62433 4.50922 4.35729 4.15881 
3.91219 3.63622 3.36875 6.01742 5.94343 5.82633 5.88092 5.76745 5.62798 
5.8278 5.71897 5.58911 5.43724 5.78235 5.67854 5.55757 5.41926 5.26596 
5.74316 5.64441 5.5315 5.40467 5.26596 5.11955 5.70914 5.61528 5.50962 
5.3926 5.26596 5.13292 4.99789 5.67937 5.59016 5.49102 5.38246 5.26596 
5.14407 5.02016 4.89798 5.56831 5.47502 5.47502 5.37381 5.37381 5.37381 
5.26596 5.26596 5.26596 5.26596 5.1535 5.1535 5.1535 5.1535 5.1535 
5.03907 5.03907 5.03907 5.03907 5.03907 5.03907 4.92564 4.92564 4.92564 
4.92564 4.92564 4.92564 4.92564 4.81599 4.81599 4.81599 4.81599 4.81599 
4.81599 4.81599 4.81599 4.60879 4.60879 4.49914 4.60879 4.49914 4.3857 
4.60879 4.49914 4.3857 4.27128 4.60879 4.49914 4.3857 4.27128 4.15881 
4.60879 4.49914 4.3857 4.27128 4.15881 4.05096 4.60879 4.49914 4.3857 
4.27128 4.15881 4.05096 3.94976 4.60879 4.49914 4.3857 4.27128 4.15881 
4.05096 3.94976 3.85646 4.5268 4.40462 4.42689 4.28071 4.29185 4.30523 
4.15881 4.15881 4.15881 4.15881 4.04232 4.03217 4.02011 4.00552 3.98753 
3.93376 3.91515 3.89328 3.86721 3.83566 3.7968 3.83461 3.8095 3.78037 
3.74624 3.70581 3.65733 3.59845 3.7454 3.71564 3.68161 3.64243 3.59698 
3.54386 3.48135 3.40735 3.56428 3.45246 3.52338 3.33203 3.40312 3.47739 
3.20576 3.27463 3.34802 3.42551 3.07742 3.14159 3.21128 3.28647 3.36688 
2.95116 3.00855 3.0719 3.14159 3.21784 3.3006 2.83072 2.88006 2.93517 
2.99672 3.06535 3.14159 3.22575 2.7189 2.7598 2.8058 2.85768 2.9163 
2.98259 3.05743 3.14159 3.56428 3.52338 3.45246 3.47739 3.40312 3.33203 
3.42551 3.34802 3.27463 3.20576 3.36688 3.28647 3.21128 3.14159 3.07742 
3.3006 3.21784 3.14159 3.0719 3.00855 2.95116 3.22575 3.14159 3.06535 
2.99672 2.93517 2.88006 2.83072 3.14159 3.05743 2.98259 2.9163 2.85768 
2.8058 2.7598 2.7189 4.5268 4.42689 4.40462 4.30523 4.29185 4.28071 
4.15881 4.15881 4.15881 4.15881 3.98753 4.00552 4.02011 4.03217 4.04232 
3.7968 3.83566 3.86721 3.89328 3.91515 3.93376 3.59845 3.65733 3.70581 
3.74624 3.78037 3.8095 3.83461 3.40735 3.48135 3.54386 3.59698 3.64243 
3.68161 3.71564 3.7454 4.71239 4.80045 4.62433 4.91556 4.71239 4.50922 
5.06749 4.83537 4.58941 4.35729 5.26596 5.0121 4.71239 4.41268 4.15881 
5.51259 5.26596 4.91556 4.50922 4.15881 3.91219 5.78856 5.60297 5.26596 
4.71239 4.15881 3.82181 3.63622 6.05603 5.97021 5.78856 5.26596 4.15881 
3.63622 3.45456 3.36875 0.227158 0.494626 0.312971 0.770593 0.680215 0.494626 
1.01722 1.01722 1.01722 1.01722 1.2157 1.27109 1.36763 1.5708 2.12437 
1.36763 1.44781 1.5708 1.77397 2.12437 2.64697 1.48273 1.5708 1.69378 
1.8705 2.12437 2.46138 2.82862 1.5708 1.65886 1.77397 1.9259 2.12437 
2.371 2.64697 2.91443 1.75639 1.87857 1.8563 2.00248 1.99133 1.97796 
2.12437 2.12437 2.12437 2.12437 2.24087 2.25101 2.26308 2.27767 2.29565 
2.34943 2.36803 2.38991 2.41597 2.44752 2.48639 2.44857 2.47368 2.50281 
2.53694 2.57738 2.62586 2.68474 2.53778 2.56754 2.60157 2.64076 2.68621 
2.73933 2.80184 2.87583 1.6744 1.6744 1.78405 1.6744 1.78405 1.89748 
1.6744 1.78405 1.89748 2.01191 1.6744 1.78405 1.89748 2.01191 2.12437 
1.6744 1.78405 1.89748 2.01191 2.12437 2.23222 1.6744 1.78405 1.89748 
2.01191 2.12437 2.23222 2.33343 1.6744 1.78405 1.89748 2.01191 2.12437 
2.23222 2.33343 2.42672 1.4672 1.35755 1.4672 1.24411 1.35755 1.4672 
1.12969 1.24411 1.35755 1.4672 1.01722 1.12969 1.24411 1.35755 1.4672 
0.909371 1.01722 1.12969 1.24411 1.35755 1.4672 0.808166 0.909371 1.01722 
1.12969 1.24411 1.35755 1.4672 0.714871 0.808166 0.909371 1.01722 1.12969 
1.24411 1.35755 1.4672 0.603812 0.57405 0.693022 0.540021 0.667908 0.792164 
0.500837 0.638778 0.773562 0.900726 0.455383 0.604649 0.751687 0.890581 1.01722 
0.402264 0.564217 0.725619 0.878514 1.01722 1.13912 0.339753 0.515737 0.694072 
0.863926 1.01722 1.15026 1.26302 0.265762 0.456853 0.655207 0.845941 1.01722 
1.16363 1.28529 1.38521 0.227158 0.312971 0.494626 0.494626 0.680215 0.770593 
1.01722 1.01722 1.01722 1.01722 2.12437 1.5708 1.36763 1.27109 1.2157 
2.64697 2.12437 1.77397 1.5708 1.44781 1.36763 2.82862 2.46138 2.12437 
1.8705 1.69378 1.5708 1.48273 2.91443 2.64697 2.371 2.12437 1.9259 
1.77397 1.65886 1.5708 1.75639 1.8563 1.87857 1.97796 1.99133 2.00248 
2.12437 2.12437 2.12437 2.12437 2.29565 2.27767 2.26308 2.25101 2.24087 
2.48639 2.44752 2.41597 2.38991 2.36803 2.34943 2.68474 2.62586 2.57738 
2.53694 2.50281 2.47368 2.44857 2.87583 2.80184 2.73933 2.68621 2.64076 
2.60157 2.56754 2.53778 5.86049 5.90139 5.97231 5.94739 6.02165 6.09275 
5.99927 6.07676 6.15015 6.21902 6.0579 6.13831 6.2135 0 0.0641696 
6.12418 6.20694 6.28319 0.069689 0.13304 0.190437 6.19903 0 0.0762451 
0.144876 0.206423 0.261531 0.310872 0 0.0841597 0.159004 0.225289 0.283913 
0.335793 0.381792 0.422692 5.86049 5.97231 5.90139 6.09275 6.02165 5.94739 
6.21902 6.15015 6.07676 5.99927 0.0641696 0 6.2135 6.13831 6.0579 
0.190437 0.13304 0.069689 6.28319 6.20694 6.12418 0.310872 0.261531 0.206423 
0.144876 0.0762451 6.28319 6.19903 0.422692 0.381792 0.335793 0.283913 0.225289 
0.159004 0.0841597 0 5.67937 5.70914 5.59016 5.74316 5.61528 5.49102 
5.78235 5.64441 5.50962 5.38246 5.8278 5.67854 5.5315 5.3926 5.26596 
5.88092 5.71897 5.55757 5.40467 5.26596 5.14407 5.94343 5.76745 5.58911 
5.41926 5.26596 5.13292 5.02016 6.01742 5.82633 5.62798 5.43724 5.26596 
5.11955 4.99789 4.89798 1.38521 1.28529 1.26302 1.16363 1.15026 1.13912 
1.01722 1.01722 1.01722 1.01722 0.845941 0.863926 0.878514 0.890581 0.900726 
0.655207 0.694072 0.725619 0.751687 0.773562 0.792164 0.456853 0.515737 0.564217 
0.604649 0.638778 0.667908 0.693022 0.265762 0.339753 0.402264 0.455383 0.500837 
0.540021 0.57405 0.603812 
