# vtk DataFile Version 4.1
vtk output
ASCII
DATASET POLYDATA
POINTS 1002 float
46.4135 95.1583 95.8603 50.2137 99.2012 105.152 42.8079 103.927 95.3328 
45.6742 106.457 104.495 51.8148 101.252 97.5055 49.7989 105.699 96.4455 
40.9281 97.3619 105.037 38.0397 102.625 104.192 54.4601 104.911 105.784 
46.9818 100.295 90.441 45.6021 102.197 110.564 40.8921 97.89 95.9893 
46.318 96.1149 96.4767 46.3147 97.0264 97.2717 46.4275 97.8633 98.1537 
46.6124 98.635 99.1921 46.8358 99.2643 100.358 47.2685 99.6006 101.591 
47.9476 99.6708 102.807 48.7397 99.6598 103.867 49.5312 99.5011 104.618 
46.6301 95.748 95.7378 46.9841 96.4607 95.6861 47.4865 97.1501 95.7431 
47.9939 97.8802 95.8432 48.5281 98.6938 95.9833 49.1049 99.4506 96.1917 
49.7303 100.079 96.4718 50.4132 100.581 96.7915 51.118 100.965 97.1298 
46.1557 95.307 96.4611 45.8023 95.5721 97.2403 45.3524 95.8896 98.1063 
44.8343 96.2429 99.0587 44.2421 96.5596 100.12 43.6065 96.7825 101.225 
42.9798 96.9755 102.33 42.3128 97.0916 103.414 41.5639 97.1809 104.356 
46.6574 94.4781 95.265 46.9378 93.9499 94.6894 47.2733 93.9415 94.0819 
47.5189 94.5264 93.4513 47.4975 95.4918 92.8539 47.3968 96.5576 92.2813 
47.2677 97.654 91.7884 47.168 98.6314 91.3248 47.0576 99.5016 90.8557 
46.32 94.2367 95.7133 45.9432 93.5529 95.6181 45.2717 93.4366 95.4929 
44.5721 93.8506 95.3326 43.9768 94.6267 95.1737 43.3188 95.4289 95.1609 
42.6659 96.1878 95.27 42.0643 96.8915 95.4915 41.4641 97.4508 95.7514 
50.6372 99.4282 104.625 51.015 99.5886 103.929 51.3269 99.7669 103.147 
51.5584 100.063 102.41 51.6414 100.478 101.737 51.5845 100.912 100.993 
51.5942 101.125 100.113 51.6996 101.14 99.1863 51.7749 101.185 98.2977 
49.3767 99.1169 105.294 48.4314 99.0003 105.31 47.3558 98.8874 105.293 
46.3761 98.6144 105.344 45.5716 98.2174 105.434 44.7628 97.8496 105.435 
43.8201 97.5839 105.402 42.7967 97.4816 105.302 41.8527 97.41 105.178 
51.0774 99.1387 105.379 51.9193 99.2482 105.687 52.6025 99.6948 106.026 
53.2339 100.324 106.264 53.8982 100.986 106.437 54.3858 101.768 106.47 
54.6095 102.711 106.367 54.6851 103.642 106.221 54.6518 104.37 106.041 
50.2528 98.93 105.771 50.1236 98.8981 106.477 49.7682 99.3122 107.221 
49.2731 99.8442 107.854 48.7298 100.293 108.462 48.1454 100.73 109.093 
47.5268 101.107 109.659 46.9077 101.376 110.139 46.2694 101.725 110.478 
42.8371 104.336 96.0103 42.9024 104.796 96.7884 43.055 105.226 97.6969 
43.2449 105.608 98.6507 43.4632 105.992 99.6761 43.7945 106.282 100.778 
44.255 106.38 101.876 44.7429 106.43 102.873 45.2229 106.482 103.76 
43.2999 104.192 95.0208 43.8685 104.446 94.748 44.5309 104.696 94.553 
45.2525 104.953 94.4807 45.9687 105.236 94.4847 46.7682 105.512 94.6264 
47.6493 105.714 94.9689 48.4624 105.782 95.466 49.1716 105.75 95.9782 
42.306 103.909 96.0598 41.765 103.876 96.8571 41.2281 103.791 97.769 
40.6042 103.711 98.6871 39.9322 103.627 99.5821 39.3758 103.463 100.542 
38.9171 103.267 101.552 38.4937 103.115 102.513 38.1958 102.902 103.395 
43.0467 103.71 94.4187 43.2645 103.488 93.353 43.5275 103.233 92.2356 
43.7968 103 91.1063 43.9935 102.772 90.0429 44.3792 102.413 89.4692 
45.1484 101.923 89.5914 45.922 101.421 89.9529 46.4735 100.883 90.1924 
42.4589 103.508 95.1302 42.0673 103.032 94.9527 41.6862 102.481 94.8292 
41.3023 101.889 94.7877 40.9447 101.202 94.8082 40.7179 100.405 94.9135 
40.6151 99.5702 95.1182 40.5837 98.8485 95.4023 40.6728 98.3047 95.7155 
46.0826 106.721 103.913 46.5288 106.967 103.191 46.9978 107.114 102.298 
47.5004 107.179 101.226 48.0925 107.166 100.124 48.6917 107.076 99.1579 
49.1824 106.826 98.3284 49.5032 106.503 97.6086 49.6778 106.103 96.9931 
44.9774 106.198 104.587 44.1849 105.912 104.686 43.3546 105.565 104.757 
42.5431 105.135 104.777 41.6774 104.703 104.786 40.7796 104.3 104.771 
39.9734 103.841 104.681 39.2543 103.394 104.522 38.5828 103.018 104.365 
46.3985 106.559 104.828 47.2585 106.655 105.162 48.2498 106.697 105.494 
49.3341 106.678 105.778 50.4617 106.593 105.947 51.5762 106.435 106.048 
52.515 106.161 106.088 53.277 105.791 106.035 53.9381 105.362 105.927 
45.7043 106.233 105.24 45.726 105.995 106.042 45.7204 105.717 106.897 
45.7122 105.375 107.737 45.7076 105.009 108.524 45.6531 104.584 109.252 
45.5803 104.101 109.853 45.5304 103.549 110.279 45.5539 102.898 110.539 
52.251 101.464 97.206 52.6029 101.802 96.8414 52.7628 102.369 96.5007 
52.6625 103.106 96.3118 52.313 103.758 96.2633 51.8168 104.243 96.2657 
51.3095 104.703 96.292 50.8048 105.117 96.325 50.2858 105.436 96.3756 
52.5355 101.473 98.3226 53.3877 101.661 99.0519 54.2068 101.866 99.73 
54.7194 102.256 100.669 55.0201 102.851 101.814 55.3583 103.432 102.829 
55.5537 103.928 103.72 55.3834 104.355 104.543 54.9706 104.672 105.23 
51.4778 101.052 96.4742 51.2125 100.722 95.4524 51.0395 100.295 94.4361 
50.7967 99.9832 93.369 50.5076 99.7528 92.3334 50.1116 99.6293 91.4178 
49.5135 99.6693 90.811 48.6725 99.8639 90.6409 47.782 100.098 90.5462 
50.3775 105.889 97.2374 50.9845 106.011 98.1141 51.6186 106.086 99.0811 
52.2713 106.155 100.116 52.8841 106.147 101.167 53.4892 106.044 102.226 
54.0278 105.897 103.296 54.3534 105.641 104.276 54.486 105.286 105.112 
49.5384 105.34 95.5703 49.2849 104.968 94.5503 49.0378 104.563 93.427 
48.7528 104.033 92.3538 48.5533 103.548 91.2515 48.5355 103.074 90.1948 
48.4232 102.395 89.6495 48.0083 101.646 89.7361 47.45 100.951 90.108 
39.9999 97.4595 105.304 39.0827 97.6833 105.504 38.2975 98.0889 105.575 
37.668 98.5825 105.569 37.1863 99.2581 105.57 36.9954 100.153 105.511 
37.1384 100.928 105.273 37.4267 101.552 104.917 37.7274 102.122 104.547 
40.9762 97.6674 105.674 41.1411 98.039 106.32 41.4259 98.4231 107.015 
41.8297 98.9208 107.721 42.3458 99.3995 108.471 42.9407 99.813 109.227 
43.6149 100.342 109.762 44.3244 100.958 110.093 44.9953 101.569 110.367 
40.3969 97.1832 104.491 39.9607 97.1137 103.765 39.698 97.1115 102.781 
39.6064 97.1209 101.637 39.7351 97.2446 100.573 39.9947 97.4324 99.5936 
40.2432 97.504 98.5151 40.4718 97.5454 97.4908 40.6964 97.6841 96.6672 
38.3074 102.593 105.068 38.7097 102.566 105.966 39.1822 102.605 106.857 
39.8277 102.641 107.735 40.6298 102.611 108.532 41.5023 102.557 109.216 
42.4827 102.476 109.737 43.5156 102.382 110.11 44.575 102.276 110.399 
37.7648 102.28 103.499 37.6734 101.777 102.7 37.6673 101.213 101.797 
37.6898 100.68 100.809 37.8923 100.093 99.8053 38.271 99.4639 98.8423 
38.7767 98.8865 97.983 39.4433 98.443 97.2682 40.194 98.148 96.6192 
54.0754 104.876 106.515 53.5043 104.785 107.281 52.8183 104.598 108.048 
52.0376 104.275 108.698 51.1416 103.962 109.301 50.0803 103.633 109.768 
48.9855 103.279 110.095 47.8484 102.925 110.441 46.6567 102.55 110.626 
46.2699 99.9645 90.5706 45.55 99.5644 90.7815 44.7174 99.1123 91.0807 
43.8466 98.565 91.2658 43.1727 98.0957 91.6677 42.7501 97.8965 92.4995 
42.3691 97.8456 93.4333 41.9198 97.8273 94.3067 41.3876 97.8537 95.1695 
46.6414 96.6739 96.4267 47.1162 97.3119 96.473 46.7316 97.5782 97.2729 
47.6247 98.0031 96.5863 47.2591 98.2007 97.3723 46.8941 98.4401 98.2226 
48.1181 98.7885 96.7118 47.803 98.8878 97.515 47.4406 99.0625 98.382 
47.1029 99.2308 99.3408 48.7265 99.5514 96.909 48.4214 99.6046 97.7019 
48.1088 99.6516 98.6516 47.7264 99.786 99.6524 47.5029 99.7362 100.622 
49.403 100.178 97.2391 49.1269 100.229 98.0874 48.882 100.203 99.0478 
48.5891 100.186 100.108 48.3374 100.106 101.065 48.2091 99.8278 101.918 
50.138 100.666 97.6015 49.8833 100.725 98.5357 49.7031 100.681 99.5408 
49.6103 100.477 100.54 49.424 100.291 101.468 49.2611 100.02 102.3 
49.0485 99.7775 103.078 50.9583 100.965 97.9702 50.7512 101.014 98.9115 
50.5956 101 99.9054 50.5948 100.757 100.86 50.6048 100.371 101.662 
50.441 100.053 102.412 50.1909 99.8163 103.203 49.8901 99.6519 103.962 
46.8815 95.3099 95.1161 47.2116 95.053 94.5081 47.2421 96.2226 95.0422 
47.6645 95.1296 93.8252 47.6007 96.1357 94.383 47.7793 97.0196 95.0576 
48.0782 95.5313 93.1261 48.1661 96.1721 93.6531 48.1977 97.0211 94.3536 
48.3974 97.8119 95.129 48.2382 96.2862 92.4674 48.7637 96.425 92.8984 
48.7422 97.1456 93.6056 48.7939 97.9393 94.3864 48.9662 98.6804 95.2652 
48.1507 97.3177 91.9123 49.0494 97.0604 92.1626 49.3667 97.3605 92.8122 
49.2637 98.1129 93.6394 49.3536 98.7964 94.5352 49.5201 99.4602 95.5019 
48.0062 98.3468 91.449 48.9901 97.9893 91.5212 49.734 97.8837 91.9692 
49.8947 98.2893 92.8284 49.8729 98.906 93.7969 49.9593 99.5265 94.8027 
50.1428 100.118 95.7913 47.8977 99.2598 90.9888 48.825 98.9746 91.041 
49.7111 98.7354 91.2673 50.2411 98.7973 91.9896 50.4191 99.1506 93.0127 
50.5098 99.6225 94.0817 50.6166 100.155 95.1183 50.8163 100.647 96.1161 
48.3324 100.75 90.1834 48.7838 101.499 90.0091 49.1582 100.574 90.4192 
48.9628 102.33 90.3627 49.3563 101.434 90.7054 49.7409 100.532 91.0526 
49.0061 102.999 91.2229 49.4228 102.263 91.4242 49.8132 101.433 91.6944 
50.2197 100.578 91.9113 49.182 103.541 92.2707 49.6121 102.953 92.2956 
50.0192 102.247 92.4585 50.3716 101.494 92.6288 50.702 100.679 92.8773 
49.4794 104.125 93.3301 49.8942 103.589 93.3062 50.3304 102.989 93.3452 
50.7376 102.356 93.4474 51.0186 101.611 93.6107 51.1725 100.817 93.9454 
49.7624 104.647 94.4027 50.1946 104.193 94.3722 50.6085 103.653 94.3975 
51.1022 103.127 94.4287 51.4955 102.489 94.4853 51.6522 101.674 94.6746 
51.5625 101.021 95.0374 50.0246 105.053 95.4522 50.5161 104.69 95.3854 
50.9613 104.211 95.3857 51.4567 103.728 95.3904 51.9471 103.197 95.388 
52.2068 102.453 95.473 52.1781 101.719 95.7439 51.8979 101.271 96.1173 
52.9659 101.782 98.0051 53.2374 102.227 97.6374 53.7437 102.083 98.7153 
53.2412 102.897 97.3754 53.813 102.688 98.4689 54.368 102.472 99.5051 
52.9964 103.675 97.2622 53.5973 103.502 98.3851 54.2169 103.305 99.4525 
54.7115 103.086 100.579 52.5738 104.289 97.1946 53.2395 104.246 98.2953 
53.8886 104.119 99.4246 54.4867 103.966 100.539 54.9509 103.754 101.722 
52.0412 104.776 97.1885 52.7519 104.798 98.2055 53.4514 104.733 99.3187 
54.1091 104.621 100.458 54.6725 104.502 101.614 55.1958 104.286 102.723 
[...]
POINT_DATA 1002
SCALARS Color_Map_Phi float
LOOKUP_TABLE default
6.28319 3.14159 6.28319 3.14159 4.71239 4.71239 1.5708 1.5708 3.69517 
5.72961 2.58802 0.553574 6.28319 6.28319 6.28319 6.28319 3.14159 3.14159 
3.14159 3.14159 3.14159 6.1053 5.8988 5.67687 5.45995 5.26596 5.10322 
4.97131 4.86569 4.78095 0.177881 0.384387 0.606312 0.823235 1.01722 1.17997 
1.31187 1.4175 1.50223 6.18928 6.10703 6.03531 5.97283 5.91832 5.87061 
5.82869 5.79168 5.75886 0.0939024 0.176153 0.247873 0.310351 0.364864 0.412573 
0.454497 0.491504 0.524326 3.31947 3.52598 3.7479 3.96483 4.15881 4.32156 
4.45346 4.55909 4.64383 2.96371 2.75721 2.53528 2.31836 2.12437 1.96162 
1.82972 1.72409 1.63936 3.2355 3.31775 3.38947 3.45194 3.50646 3.55417 
3.59609 3.6331 3.66592 3.04769 2.96544 2.89372 2.83124 2.77673 2.72902 
2.6871 2.65009 2.61727 6.28319 6.28319 6.28319 6.28319 3.14159 3.14159 
3.14159 3.14159 3.14159 6.1053 5.8988 5.67687 5.45995 5.26596 5.10322 
4.97131 4.86569 4.78095 0.177881 0.384387 0.606312 0.823235 1.01722 1.17997 
1.31187 1.4175 1.50223 6.18928 6.10703 6.03531 5.97283 5.91832 5.87061 
5.82869 5.79168 5.75886 0.0939024 0.176153 0.247873 0.310351 0.364864 0.412573 
0.454497 0.491504 0.524326 3.31947 3.52598 3.7479 3.96483 4.15881 4.32156 
4.45346 4.55909 4.64383 2.96371 2.75721 2.53528 2.31836 2.12437 1.96162 
1.82972 1.72409 1.63936 3.2355 3.31775 3.38947 3.45194 3.50646 3.55417 
3.59609 3.6331 3.66592 3.04769 2.96544 2.89372 2.83124 2.77673 2.72902 
2.6871 2.65009 2.61727 4.71239 4.71239 4.71239 4.71239 4.71239 4.71239 
4.71239 4.71239 4.71239 4.60879 4.49914 4.3857 4.27128 4.15881 4.05096 
3.94976 3.85646 3.77161 4.81599 4.92564 5.03907 5.1535 5.26596 5.37381 
5.47502 5.56831 5.65317 4.60879 4.49914 4.3857 4.27128 4.15881 4.05096 
3.94976 3.85646 3.77161 4.81599 4.92564 5.03907 5.1535 5.26596 5.37381 
5.47502 5.56831 5.65317 1.5708 1.5708 1.5708 1.5708 1.5708 1.5708 
1.5708 1.5708 1.5708 1.6744 1.78405 1.89748 2.01191 2.12437 2.23222 
2.33343 2.42672 2.51157 1.4672 1.35755 1.24411 1.12969 1.01722 0.909371 
0.808166 0.714871 0.63002 1.6744 1.78405 1.89748 2.01191 2.12437 2.23222 
2.33343 2.42672 2.51157 1.4672 1.35755 1.24411 1.12969 1.01722 0.909371 
0.808166 0.714871 0.63002 3.60077 3.49669 3.38395 3.26458 3.14159 3.01861 
2.89924 2.78649 2.68241 5.82401 5.92808 6.04083 6.1602 6.28319 0.122983 
0.242354 0.355101 0.459179 6.05603 5.78856 5.97021 5.51259 5.60297 5.78856 
5.26596 5.26596 5.26596 5.26596 5.06749 5.0121 4.91556 4.71239 4.15881 
4.91556 4.83537 4.71239 4.50922 4.15881 3.63622 4.80045 4.71239 4.58941 
4.41268 4.15881 3.82181 3.45456 4.71239 4.62433 4.50922 4.35729 4.15881 
3.91219 3.63622 3.36875 6.01742 5.94343 5.82633 5.88092 5.76745 5.62798 
5.8278 5.71897 5.58911 5.43724 5.78235 5.67854 5.55757 5.41926 5.26596 
5.74316 5.64441 5.5315 5.40467 5.26596 5.11955 5.70914 5.61528 5.50962 
5.3926 5.26596 5.13292 4.99789 5.67937 5.59016 5.49102 5.38246 5.26596 
5.14407 5.02016 4.89798 5.56831 5.47502 5.47502 5.37381 5.37381 5.37381 
5.26596 5.26596 5.26596 5.26596 5.1535 5.1535 5.1535 5.1535 5.1535 
5.03907 5.03907 5.03907 5.03907 5.03907 5.03907 4.92564 4.92564 4.92564 
4.92564 4.92564 4.92564 4.92564 4.81599 4.81599 4.81599 4.81599 4.81599 
4.81599 4.81599 4.81599 4.60879 4.60879 4.49914 4.60879 4.49914 4.3857 
4.60879 4.49914 4.3857 4.27128 4.60879 4.49914 4.3857 4.27128 4.15881 
4.60879 4.49914 4.3857 4.27128 4.15881 4.05096 4.60879 4.49914 4.3857 
4.27128 4.15881 4.05096 3.94976 4.60879 4.49914 4.3857 4.27128 4.15881 
4.05096 3.94976 3.85646 4.5268 4.40462 4.42689 4.28071 4.29185 4.30523 
4.15881 4.15881 4.15881 4.15881 4.04232 4.03217 4.02011 4.00552 3.98753 
3.93376 3.91515 3.89328 3.86721 3.83566 3.7968 3.83461 3.8095 3.78037 
3.74624 3.70581 3.65733 3.59845 3.7454 3.71564 3.68161 3.64243 3.59698 
3.54386 3.48135 3.40735 3.56428 3.45246 3.52338 3.33203 3.40312 3.47739 
3.20576 3.27463 3.34802 3.42551 3.07742 3.14159 3.21128 3.28647 3.36688 
2.95116 3.00855 3.0719 3.14159 3.21784 3.3006 2.83072 2.88006 2.93517 
2.99672 3.06535 3.14159 3.22575 2.7189 2.7598 2.8058 2.85768 2.9163 
2.98259 3.05743 3.14159 3.56428 3.52338 3.45246 3.47739 3.40312 3.33203 
3.42551 3.34802 3.27463 3.20576 3.36688 3.28647 3.21128 3.14159 3.07742 
3.3006 3.21784 3.14159 3.0719 3.00855 2.95116 3.22575 3.14159 3.06535 
2.99672 2.93517 2.88006 2.83072 3.14159 3.05743 2.98259 2.9163 2.85768 
2.8058 2.7598 2.7189 4.5268 4.42689 4.40462 4.30523 4.29185 4.28071 
4.15881 4.15881 4.15881 4.15881 3.98753 4.00552 4.02011 4.03217 4.04232 
3.7968 3.83566 3.86721 3.89328 3.91515 3.93376 3.59845 3.65733 3.70581 
3.74624 3.78037 3.8095 3.83461 3.40735 3.48135 3.54386 3.59698 3.64243 
3.68161 3.71564 3.7454 4.71239 4.80045 4.62433 4.91556 4.71239 4.50922 
5.06749 4.83537 4.58941 4.35729 5.26596 5.0121 4.71239 4.41268 4.15881 
5.51259 5.26596 4.91556 4.50922 4.15881 3.91219 5.78856 5.60297 5.26596 
4.71239 4.15881 3.82181 3.63622 6.05603 5.97021 5.78856 5.26596 4.15881 
3.63622 3.45456 3.36875 0.227158 0.494626 0.312971 0.770593 0.680215 0.494626 
1.01722 1.01722 1.01722 1.01722 1.2157 1.27109 1.36763 1.5708 2.12437 
1.36763 1.44781 1.5708 1.77397 2.12437 2.64697 1.48273 1.5708 1.69378 
1.8705 2.12437 2.46138 2.82862 1.5708 1.65886 1.77397 1.9259 2.12437 
2.371 2.64697 2.91443 1.75639 1.87857 1.8563 2.00248 1.99133 1.97796 
2.12437 2.12437 2.12437 2.12437 2.24087 2.25101 2.26308 2.27767 2.29565 
2.34943 2.36803 2.38991 2.41597 2.44752 2.48639 2.44857 2.47368 2.50281 
2.53694 2.57738 2.62586 2.68474 2.53778 2.56754 2.60157 2.64076 2.68621 
2.73933 2.80184 2.87583 1.6744 1.6744 1.78405 1.6744 1.78405 1.89748 
1.6744 1.78405 1.89748 2.01191 1.6744 1.78405 1.89748 2.01191 2.12437 
1.6744 1.78405 1.89748 2.01191 2.12437 2.23222 1.6744 1.78405 1.89748 
2.01191 2.12437 2.23222 2.33343 1.6744 1.78405 1.89748 2.01191 2.12437 
2.23222 2.33343 2.42672 1.4672 1.35755 1.4672 1.24411 1.35755 1.4672 
1.12969 1.24411 1.35755 1.4672 1.01722 1.12969 1.24411 1.35755 1.4672 
0.909371 1.01722 1.12969 1.24411 1.35755 1.4672 0.808166 0.909371 1.01722 
1.12969 1.24411 1.35755 1.4672 0.714871 0.808166 0.909371 1.01722 1.12969 
1.24411 1.35755 1.4672 0.603812 0.57405 0.693022 0.540021 0.667908 0.792164 
0.500837 0.638778 0.773562 0.900726 0.455383 0.604649 0.751687 0.890581 1.01722 
0.402264 0.564217 0.725619 0.878514 1.01722 1.13912 0.339753 0.515737 0.694072 
0.863926 1.01722 1.15026 1.26302 0.265762 0.456853 0.655207 0.845941 1.01722 
1.16363 1.28529 1.38521 0.227158 0.312971 0.494626 0.494626 0.680215 0.770593 
1.01722 1.01722 1.01722 1.01722 2.12437 1.5708 1.36763 1.27109 1.2157 
2.64697 2.12437 1.77397 1.5708 1.44781 1.36763 2.82862 2.46138 2.12437 
1.8705 1.69378 1.5708 1.48273 2.91443 2.64697 2.371 2.12437 1.9259 
1.77397 1.65886 1.5708 1.75639 1.8563 1.87857 1.97796 1.99133 2.00248 
2.12437 2.12437 2.12437 2.12437 2.29565 2.27767 2.26308 2.25101 2.24087 
2.48639 2.44752 2.41597 2.38991 2.36803 2.34943 2.68474 2.62586 2.57738 
2.53694 2.50281 2.47368 2.44857 2.87583 2.80184 2.73933 2.68621 2.64076 
2.60157 2.56754 2.53778 5.86049 5.90139 5.97231 5.94739 6.02165 6.09275 
5.99927 6.07676 6.15015 6.21902 6.0579 6.13831 6.2135 0 0.0641696 
6.12418 6.20694 6.28319 0.069689 0.13304 0.190437 6.19903 0 0.0762451 
0.144876 0.206423 0.261531 0.310872 0 0.0841597 0.159004 0.225289 0.283913 
0.335793 0.381792 0.422692 5.86049 5.97231 5.90139 6.09275 6.02165 5.94739 
6.21902 6.15015 6.07676 5.99927 0.0641696 0 6.2135 6.13831 6.0579 
0.190437 0.13304 0.069689 6.28319 6.20694 6.12418 0.310872 0.261531 0.206423 
0.144876 0.0762451 6.28319 6.19903 0.422692 0.381792 0.335793 0.283913 0.225289 
0.159004 0.0841597 0 5.67937 5.70914 5.59016 5.74316 5.61528 5.49102 
5.78235 5.64441 5.50962 5.38246 5.8278 5.67854 5.5315 5.3926 5.26596 
5.88092 5.71897 5.55757 5.40467 5.26596 5.14407 5.94343 5.76745 5.58911 
5.41926 5.26596 5.13292 5.02016 6.01742 5.82633 5.62798 5.43724 5.26596 
5.11955 4.99789 4.89798 1.38521 1.28529 1.26302 1.16363 1.15026 1.13912 
1.01722 1.01722 1.01722 1.01722 0.845941 0.863926 0.878514 0.890581 0.900726 
0.655207 0.694072 0.725619 0.751687 0.773562 0.792164 0.456853 0.515737 0.564217 
0.604649 0.638778 0.667908 0.693022 0.265762 0.339753 0.402264 0.455383 0.500837 
0.540021 0.57405 0.603812 
