# vtk DataFile Version 4.1
vtk output
ASCII
DATASET POLYDATA
POINTS 1002 float
46.8483 94.1223 95.4868 50.3098 98.1174 104.169 42.8713 103.326 94.5465 
44.8718 105.916 103.114 53.0183 100.771 96.6799 50.1231 105.586 95.1202 
40.873 96.3638 103.341 37.6686 101.568 102.782 54.1457 104.247 104.478 
47.3481 100.327 90.4132 45.1791 101.174 108.768 40.9333 97.1507 95.3332 
46.7568 95.2506 95.9549 46.7282 96.249 96.615 46.7873 97.1601 97.4063 
46.918 97.938 98.3611 47.1312 98.4999 99.5774 47.6585 98.676 100.834 
48.4265 98.5339 101.904 49.1563 98.3438 102.798 49.7431 98.2582 103.542 
47.0705 94.9751 95.3533 47.4525 95.8402 95.2706 47.9863 96.6391 95.2717 
48.6218 97.4565 95.3429 49.3216 98.2515 95.454 50.0953 98.9242 95.6296 
50.8945 99.5338 95.9139 51.7264 100.007 96.2241 52.4595 100.387 96.481 
46.5268 94.3408 95.8893 46.1132 94.6836 96.474 45.5555 95.1643 97.2267 
44.9203 95.5563 98.0421 44.1081 96.0561 98.8926 43.3562 96.3368 99.8338 
42.6002 96.4984 100.775 41.9063 96.5583 101.685 41.3159 96.458 102.575 
47.115 93.5345 95.038 47.4417 93.2796 94.564 47.7836 93.6516 93.9926 
47.9446 94.3695 93.3856 47.7381 95.4673 92.8198 47.5187 96.6452 92.2775 
47.4705 97.7586 91.7905 47.4725 98.6876 91.2818 47.4243 99.5441 90.7847 
46.7776 92.9323 95.3861 46.4781 91.9368 95.3376 45.8302 92.0322 95.2318 
45.0706 92.7796 95.0311 44.3557 93.7128 94.8328 43.5636 94.5508 94.8096 
42.7999 95.347 94.9464 42.0976 96.0613 95.0944 41.4878 96.6553 95.212 
50.6821 98.5117 103.718 51.026 98.9722 103.231 51.4493 99.3291 102.618 
51.9345 99.5641 101.872 52.345 99.7775 101.053 52.6493 99.9883 100.191 
52.9082 100.12 99.2248 53.0343 100.286 98.2676 53.0646 100.51 97.4243 
49.5433 97.8325 104.202 48.7047 97.5321 104.196 47.8078 97.2829 104.197 
46.754 97.2837 104.224 45.5493 97.3856 104.204 44.389 97.3194 104.066 
43.3899 97.1369 103.838 42.4581 96.944 103.603 41.5898 96.6979 103.407 
51.0769 98.2646 104.476 51.8558 98.5722 104.775 52.6005 99.0964 105.136 
53.3574 99.6584 105.459 54.0336 100.276 105.631 54.4229 101.225 105.601 
54.5958 102.291 105.409 54.5768 103.13 105.145 54.4133 103.763 104.826 
50.3362 97.8604 104.812 50.1826 97.804 105.499 49.835 98.0071 106.172 
49.3757 98.3687 106.834 48.8383 98.7831 107.475 48.1611 99.2409 108.014 
47.391 99.6915 108.439 46.6189 100.155 108.714 45.8704 100.663 108.827 
42.9323 103.688 95.1602 42.9771 104.155 95.8028 43.0498 104.607 96.5916 
43.1862 104.984 97.4855 43.3163 105.358 98.4011 43.5032 105.643 99.4053 
43.7786 105.794 100.472 44.0931 105.913 101.493 44.4611 105.95 102.374 
43.4391 103.631 94.2489 44.0468 104.001 93.9392 44.692 104.413 93.6387 
45.3571 104.82 93.4368 46.0884 105.244 93.3554 46.9527 105.559 93.4548 
47.8523 105.637 93.7752 48.6887 105.617 94.2288 49.4394 105.603 94.6933 
42.3113 103.251 95.229 41.6641 103.162 95.95 40.9351 103.107 96.6658 
40.162 103.041 97.3937 39.4284 102.903 98.2021 38.8021 102.727 99.0679 
38.3565 102.467 100.058 38.061 102.153 101.104 37.834 101.849 102.019 
43.1314 103.178 93.69 43.4038 102.993 92.7635 43.6999 102.781 91.817 
43.9518 102.571 90.8203 44.1443 102.347 89.9126 44.6489 102.013 89.5075 
45.4838 101.571 89.6246 46.2721 101.137 89.9025 46.8705 100.727 90.1526 
42.4488 102.942 94.3411 41.9912 102.453 94.1935 41.5344 101.852 94.1063 
41.087 101.195 94.0741 40.6788 100.429 94.0646 40.3868 99.6222 94.1426 
40.3166 98.8741 94.3831 40.4559 98.1933 94.7371 40.6834 97.6062 95.0621 
45.4282 106.11 102.465 46.0621 106.295 101.711 46.6727 106.525 100.923 
47.2496 106.715 100.035 47.9089 106.752 98.9894 48.6004 106.722 97.8607 
49.1687 106.608 96.9481 49.5824 106.313 96.2811 49.8831 105.94 95.6746 
44.0835 105.706 103.275 43.2758 105.404 103.398 42.4149 105.078 103.534 
41.5078 104.706 103.618 40.6425 104.248 103.554 39.882 103.738 103.478 
39.1656 103.233 103.433 38.5219 102.699 103.304 38.0413 102.112 103.032 
45.7058 105.933 103.377 46.6798 105.921 103.625 47.7407 105.91 103.899 
48.8819 105.896 104.167 50.0376 105.794 104.326 51.107 105.596 104.458 
52.0741 105.352 104.579 52.8981 105.031 104.584 53.5662 104.637 104.528 
44.8316 105.736 103.912 44.8113 105.504 104.729 44.794 105.172 105.544 
44.8131 104.76 106.294 44.8804 104.291 106.957 44.9533 103.707 107.538 
45.0275 103.082 108.021 45.0654 102.519 108.406 45.097 101.892 108.683 
53.2344 101.219 96.3222 53.4046 101.744 95.9099 53.501 102.371 95.4987 
53.4422 103.11 95.1794 53.1074 103.814 95.043 52.5247 104.305 95.0389 
51.8841 104.679 95.0368 51.2757 105.035 95.0333 50.6855 105.334 95.0659 
53.5437 101.03 97.3493 54.0251 101.37 98.1844 54.4998 101.754 99.1186 
55.0405 102.154 99.9506 55.5621 102.635 100.704 55.856 103.198 101.644 
55.7755 103.678 102.677 55.3607 103.976 103.474 54.7712 104.134 104.041 
52.6139 100.782 95.8048 52.2106 100.73 94.8374 51.8336 100.607 93.7914 
51.4992 100.382 92.6854 51.2319 100.134 91.6074 50.761 100.02 90.8751 
49.9211 100.122 90.6025 48.9355 100.285 90.5819 48.0574 100.363 90.5396 
50.6615 105.753 95.91 51.2473 105.909 96.7954 51.8969 106.055 97.7439 
52.5776 106.147 98.7349 53.1817 106.062 99.8484 53.6473 105.778 101.023 
53.98 105.398 102.084 54.1597 105.009 103.005 54.1976 104.622 103.803 
49.9369 105.254 94.2885 49.7355 104.891 93.3533 49.499 104.482 92.3088 
49.2702 104.077 91.2333 49.2005 103.717 90.1495 49.1287 103.256 89.4282 
48.7772 102.597 89.3973 48.238 101.83 89.7909 47.7288 101.075 90.151 
40.1396 96.1901 103.77 39.3437 96.2735 104.079 38.5436 96.7146 104.194 
37.8471 97.2772 104.217 37.2881 97.8975 104.233 36.9347 98.7788 104.198 
36.8856 99.7374 103.992 37.0756 100.506 103.593 37.3665 101.087 103.15 
40.9233 96.556 104.098 41.0952 96.8149 104.912 41.3665 97.2189 105.679 
41.7359 97.6982 106.328 42.1639 98.2412 106.933 42.7222 98.7947 107.498 
43.4069 99.358 107.952 44.07 99.9198 108.329 44.6567 100.537 108.605 
40.4809 96.0743 102.867 40.1494 95.8613 102.243 39.838 95.7292 101.364 
39.6265 95.7362 100.259 39.6495 95.8833 99.1269 39.9022 96.1075 98.1697 
40.2161 96.3945 97.4012 40.5054 96.6865 96.6826 40.7414 96.9415 95.9789 
37.7972 101.634 103.699 38.0388 101.704 104.685 38.3804 101.787 105.716 
38.8796 101.824 106.646 39.6195 101.786 107.376 40.6122 101.61 107.843 
41.7565 101.462 108.157 42.9863 101.354 108.387 44.1678 101.263 108.577 
37.408 101.246 102.074 37.1613 100.886 101.182 37.0509 100.375 100.166 
37.1905 99.7123 99.2253 37.4818 99.0118 98.3466 37.8464 98.3988 97.4349 
38.4652 97.974 96.7326 39.3309 97.6975 96.2678 40.1963 97.4491 95.8294 
53.6793 104.108 105.162 53.142 103.979 105.91 52.459 103.78 106.612 
51.5716 103.471 107.185 50.5521 103.097 107.707 49.5235 102.738 108.223 
48.446 102.373 108.658 47.2626 101.965 108.885 46.1408 101.547 108.9 
46.668 99.7942 90.5245 45.8431 99.2575 90.8006 45.0031 98.7447 91.143 
44.1698 98.1773 91.3816 43.2829 97.6038 91.6276 42.6044 97.2064 92.1376 
42.2424 97.0637 92.996 41.8768 97.0639 93.8853 41.4122 97.1037 94.6547 
47.1144 95.9085 95.9246 47.5997 96.667 95.9215 47.1882 96.8632 96.6578 
48.1593 97.4624 95.9901 47.7357 97.549 96.7293 47.3114 97.7358 97.4935 
48.8253 98.2388 96.1196 48.3883 98.2804 96.8615 47.9795 98.3057 97.6887 
47.5664 98.4036 98.5882 49.6439 98.8755 96.3429 49.21 98.8863 97.1186 
48.8149 98.8545 97.97 48.4468 98.7831 98.9478 48.0445 98.7592 99.9226 
50.5547 99.4073 96.6481 50.1659 99.3481 97.452 49.7741 99.2858 98.3904 
49.3961 99.1829 99.3778 49.0713 99.0235 100.328 48.7576 98.7809 101.173 
51.5208 99.8171 96.9796 51.2197 99.694 97.8184 50.8328 99.6304 98.7649 
50.4156 99.53 99.7656 50.0927 99.3307 100.683 49.809 99.0293 101.513 
49.4826 98.6914 102.204 52.3831 100.163 97.2391 52.2247 99.9863 98.0906 
51.9522 99.8791 99.0566 51.5701 99.7781 100.024 51.2026 99.5837 100.924 
50.8088 99.3367 101.742 50.4559 99.0018 102.456 50.1075 98.6039 103.046 
47.3454 94.6657 94.8345 47.7751 94.5535 94.3117 47.7455 95.7204 94.7142 
48.2756 94.7939 93.6848 48.245 95.7052 94.1679 48.3647 96.6458 94.7064 
48.4724 95.4666 93.0178 48.7888 95.976 93.4411 48.8759 96.8016 94.0574 
49.0837 97.5445 94.7309 48.3595 96.4886 92.4179 49.0779 96.5994 92.68 
49.4392 97.0576 93.2263 49.5903 97.7737 93.9672 49.8188 98.3797 94.7643 
48.2128 97.6293 91.909 49.1947 97.4263 91.9693 49.9045 97.4861 92.3146 
50.0941 98.0161 93.0731 50.2586 98.6218 93.9923 50.5583 99.1305 94.9559 
48.1779 98.6544 91.4265 49.1046 98.473 91.4571 50.0863 98.2776 91.5673 
50.5695 98.461 92.1349 50.6687 98.9671 93.1246 50.9149 99.4414 94.2195 
51.2954 99.8074 95.2417 48.1374 99.5539 90.9638 48.9947 99.4515 91.0078 
50.0353 99.2308 91.0336 50.7952 99.2034 91.3917 51.0804 99.4766 92.2917 
51.2519 99.8894 93.4182 51.5902 100.18 94.5213 52.0174 100.339 95.547 
48.5928 101.108 90.1969 49.2775 101.841 89.7555 49.644 100.998 90.1745 
49.8202 102.598 89.5386 50.3319 101.787 89.8613 50.5553 100.895 90.4081 
49.926 103.234 90.0519 50.6533 102.634 90.09 51.0003 101.797 90.5142 
51.1349 100.919 91.0767 49.8784 103.705 91.0768 50.6307 103.31 91.0149 
51.2158 102.695 91.1638 51.4777 101.843 91.5841 51.5475 101.034 92.1219 
50.0458 104.13 92.1372 50.706 103.782 92.0684 51.4463 103.373 92.0542 
51.9074 102.695 92.2339 52.0417 101.849 92.6727 51.9883 101.144 93.2365 
50.2978 104.562 93.1904 50.9003 104.206 93.1087 51.6169 103.857 93.0472 
52.2877 103.37 93.0173 52.5877 102.615 93.2572 52.5638 101.823 93.7648 
52.4203 101.212 94.327 50.5072 104.97 94.1921 51.0929 104.622 94.1343 
51.7345 104.267 94.0988 52.4346 103.877 94.0289 52.9457 103.263 94.0751 
53.0826 102.482 94.3949 52.9894 101.793 94.875 52.8265 101.242 95.368 
53.756 101.549 97.0251 53.8894 102.168 96.6468 54.2139 101.961 97.8993 
53.8974 102.909 96.2961 54.3051 102.686 97.5476 54.6665 102.431 98.8398 
53.6856 103.698 96.0882 54.2128 103.521 97.2532 54.7009 103.265 98.5139 
55.1485 102.973 99.6788 53.2217 104.322 96.006 53.8623 104.264 97.0947 
54.4681 104.103 98.2784 55.043 103.864 99.4373 55.5284 103.584 100.523 
52.6015 104.779 95.939 53.2988 104.821 96.9707 53.951 104.771 98.1186 
54.6058 104.631 99.2739 55.198 104.42 100.394 55.6189 104.111 101.548 
[...]
POINT_DATA 1002
SCALARS Color_Map_Phi float
LOOKUP_TABLE default
6.28319 3.14159 6.28319 3.14159 4.71239 4.71239 1.5708 1.5708 3.69517 
5.72961 2.58802 0.553574 6.28319 6.28319 6.28319 6.28319 3.14159 3.14159 
3.14159 3.14159 3.14159 6.1053 5.8988 5.67687 5.45995 5.26596 5.10322 
4.97131 4.86569 4.78095 0.177881 0.384387 0.606312 0.823235 1.01722 1.17997 
1.31187 1.4175 1.50223 6.18928 6.10703 6.03531 5.97283 5.91832 5.87061 
5.82869 5.79168 5.75886 0.0939024 0.176153 0.247873 0.310351 0.364864 0.412573 
0.454497 0.491504 0.524326 3.31947 3.52598 3.7479 3.96483 4.15881 4.32156 
4.45346 4.55909 4.64383 2.96371 2.75721 2.53528 2.31836 2.12437 1.96162 
1.82972 1.72409 1.63936 3.2355 3.31775 3.38947 3.45194 3.50646 3.55417 
3.59609 3.6331 3.66592 3.04769 2.96544 2.89372 2.83124 2.77673 2.72902 
2.6871 2.65009 2.61727 6.28319 6.28319 6.28319 6.28319 3.14159 3.14159 
3.14159 3.14159 3.14159 6.1053 5.8988 5.67687 5.45995 5.26596 5.10322 
4.97131 4.86569 4.78095 0.177881 0.384387 0.606312 0.823235 1.01722 1.17997 
1.31187 1.4175 1.50223 6.18928 6.10703 6.03531 5.97283 5.91832 5.87061 
5.82869 5.79168 5.75886 0.0939024 0.176153 0.247873 0.310351 0.364864 0.412573 
0.454497 0.491504 0.524326 3.31947 3.52598 3.7479 3.96483 4.15881 4.32156 
4.45346 4.55909 4.64383 2.96371 2.75721 2.53528 2.31836 2.12437 1.96162 
1.82972 1.72409 1.63936 3.2355 3.31775 3.38947 3.45194 3.50646 3.55417 
3.59609 3.6331 3.66592 3.04769 2.96544 2.89372 2.83124 2.77673 2.72902 
2.6871 2.65009 2.61727 4.71239 4.71239 4.71239 4.71239 4.71239 4.71239 
4.71239 4.71239 4.71239 4.60879 4.49914 4.3857 4.27128 4.15881 4.05096 
3.94976 3.85646 3.77161 4.81599 4.92564 5.03907 5.1535 5.26596 5.37381 
5.47502 5.56831 5.65317 4.60879 4.49914 4.3857 4.27128 4.15881 4.05096 
3.94976 3.85646 3.77161 4.81599 4.92564 5.03907 5.1535 5.26596 5.37381 
5.47502 5.56831 5.65317 1.5708 1.5708 1.5708 1.5708 1.5708 1.5708 
1.5708 1.5708 1.5708 1.6744 1.78405 1.89748 2.01191 2.12437 2.23222 
2.33343 2.42672 2.51157 1.4672 1.35755 1.24411 1.12969 1.01722 0.909371 
0.808166 0.714871 0.63002 1.6744 1.78405 1.89748 2.01191 2.12437 2.23222 
2.33343 2.42672 2.51157 1.4672 1.35755 1.24411 1.12969 1.01722 0.909371 
0.808166 0.714871 0.63002 3.60077 3.49669 3.38395 3.26458 3.14159 3.01861 
2.89924 2.78649 2.68241 5.82401 5.92808 6.04083 6.1602 6.28319 0.122983 
0.242354 0.355101 0.459179 6.05603 5.78856 5.97021 5.51259 5.60297 5.78856 
5.26596 5.26596 5.26596 5.26596 5.06749 5.0121 4.91556 4.71239 4.15881 
4.91556 4.83537 4.71239 4.50922 4.15881 3.63622 4.80045 4.71239 4.58941 
4.41268 4.15881 3.82181 3.45456 4.71239 4.62433 4.50922 4.35729 4.15881 
3.91219 3.63622 3.36875 6.01742 5.94343 5.82633 5.88092 5.76745 5.62798 
5.8278 5.71897 5.58911 5.43724 5.78235 5.67854 5.55757 5.41926 5.26596 
5.74316 5.64441 5.5315 5.40467 5.26596 5.11955 5.70914 5.61528 5.50962 
5.3926 5.26596 5.13292 4.99789 5.67937 5.59016 5.49102 5.38246 5.26596 
5.14407 5.02016 4.89798 5.56831 5.47502 5.47502 5.37381 5.37381 5.37381 
5.26596 5.26596 5.26596 5.26596 5.1535 5.1535 5.1535 5.1535 5.1535 
5.03907 5.03907 5.03907 5.03907 5.03907 5.03907 4.92564 4.92564 4.92564 
4.92564 4.92564 4.92564 4.92564 4.81599 4.81599 4.81599 4.81599 4.81599 
4.81599 4.81599 4.81599 4.60879 4.60879 4.49914 4.60879 4.49914 4.3857 
4.60879 4.49914 4.3857 4.27128 4.60879 4.49914 4.3857 4.27128 4.15881 
4.60879 4.49914 4.3857 4.27128 4.15881 4.05096 4.60879 4.49914 4.3857 
4.27128 4.15881 4.05096 3.94976 4.60879 4.49914 4.3857 4.27128 4.15881 
4.05096 3.94976 3.85646 4.5268 4.40462 4.42689 4.28071 4.29185 4.30523 
4.15881 4.15881 4.15881 4.15881 4.04232 4.03217 4.02011 4.00552 3.98753 
3.93376 3.91515 3.89328 3.86721 3.83566 3.7968 3.83461 3.8095 3.78037 
3.74624 3.70581 3.65733 3.59845 3.7454 3.71564 3.68161 3.64243 3.59698 
3.54386 3.48135 3.40735 3.56428 3.45246 3.52338 3.33203 3.40312 3.47739 
3.20576 3.27463 3.34802 3.42551 3.07742 3.14159 3.21128 3.28647 3.36688 
2.95116 3.00855 3.0719 3.14159 3.21784 3.3006 2.83072 2.88006 2.93517 
2.99672 3.06535 3.14159 3.22575 2.7189 2.7598 2.8058 2.85768 2.9163 
2.98259 3.05743 3.14159 3.56428 3.52338 3.45246 3.47739 3.40312 3.33203 
3.42551 3.34802 3.27463 3.20576 3.36688 3.28647 3.21128 3.14159 3.07742 
3.3006 3.21784 3.14159 3.0719 3.00855 2.95116 3.22575 3.14159 3.06535 
2.99672 2.93517 2.88006 2.83072 3.14159 3.05743 2.98259 2.9163 2.85768 
2.8058 2.7598 2.7189 4.5268 4.42689 4.40462 4.30523 4.29185 4.28071 
4.15881 4.15881 4.15881 4.15881 3.98753 4.00552 4.02011 4.03217 4.04232 
3.7968 3.83566 3.86721 3.89328 3.91515 3.93376 3.59845 3.65733 3.70581 
3.74624 3.78037 3.8095 3.83461 3.40735 3.48135 3.54386 3.59698 3.64243 
3.68161 3.71564 3.7454 4.71239 4.80045 4.62433 4.91556 4.71239 4.50922 
5.06749 4.83537 4.58941 4.35729 5.26596 5.0121 4.71239 4.41268 4.15881 
5.51259 5.26596 4.91556 4.50922 4.15881 3.91219 5.78856 5.60297 5.26596 
4.71239 4.15881 3.82181 3.63622 6.05603 5.97021 5.78856 5.26596 4.15881 
3.63622 3.45456 3.36875 0.227158 0.494626 0.312971 0.770593 0.680215 0.494626 
1.01722 1.01722 1.01722 1.01722 1.2157 1.27109 1.36763 1.5708 2.12437 
1.36763 1.44781 1.5708 1.77397 2.12437 2.64697 1.48273 1.5708 1.69378 
1.8705 2.12437 2.46138 2.82862 1.5708 1.65886 1.77397 1.9259 2.12437 
2.371 2.64697 2.91443 1.75639 1.87857 1.8563 2.00248 1.99133 1.97796 
2.12437 2.12437 2.12437 2.12437 2.24087 2.25101 2.26308 2.27767 2.29565 
2.34943 2.36803 2.38991 2.41597 2.44752 2.48639 2.44857 2.47368 2.50281 
2.53694 2.57738 2.62586 2.68474 2.53778 2.56754 2.60157 2.64076 2.68621 
2.73933 2.80184 2.87583 1.6744 1.6744 1.78405 1.6744 1.78405 1.89748 
1.6744 1.78405 1.89748 2.01191 1.6744 1.78405 1.89748 2.01191 2.12437 
1.6744 1.78405 1.89748 2.01191 2.12437 2.23222 1.6744 1.78405 1.89748 
2.01191 2.12437 2.23222 2.33343 1.6744 1.78405 1.89748 2.01191 2.12437 
2.23222 2.33343 2.42672 1.4672 1.35755 1.4672 1.24411 1.35755 1.4672 
1.12969 1.24411 1.35755 1.4672 1.01722 1.12969 1.24411 1.35755 1.4672 
0.909371 1.01722 1.12969 1.24411 1.35755 1.4672 0.808166 0.909371 1.01722 
1.12969 1.24411 1.35755 1.4672 0.714871 0.808166 0.909371 1.01722 1.12969 
1.24411 1.35755 1.4672 0.603812 0.57405 0.693022 0.540021 0.667908 0.792164 
0.500837 0.638778 0.773562 0.900726 0.455383 0.604649 0.751687 0.890581 1.01722 
0.402264 0.564217 0.725619 0.878514 1.01722 1.13912 0.339753 0.515737 0.694072 
0.863926 1.01722 1.15026 1.26302 0.265762 0.456853 0.655207 0.845941 1.01722 
1.16363 1.28529 1.38521 0.227158 0.312971 0.494626 0.494626 0.680215 0.770593 
1.01722 1.01722 1.01722 1.01722 2.12437 1.5708 1.36763 1.27109 1.2157 
2.64697 2.12437 1.77397 1.5708 1.44781 1.36763 2.82862 2.46138 2.12437 
1.8705 1.69378 1.5708 1.48273 2.91443 2.64697 2.371 2.12437 1.9259 
1.77397 1.65886 1.5708 1.75639 1.8563 1.87857 1.97796 1.99133 2.00248 
2.12437 2.12437 2.12437 2.12437 2.29565 2.27767 2.26308 2.25101 2.24087 
2.48639 2.44752 2.41597 2.38991 2.36803 2.34943 2.68474 2.62586 2.57738 
2.53694 2.50281 2.47368 2.44857 2.87583 2.80184 2.73933 2.68621 2.64076 
2.60157 2.56754 2.53778 5.86049 5.90139 5.97231 5.94739 6.02165 6.09275 
5.99927 6.07676 6.15015 6.21902 6.0579 6.13831 6.2135 0 0.0641696 
6.12418 6.20694 6.28319 0.069689 0.13304 0.190437 6.19903 0 0.0762451 
0.144876 0.206423 0.261531 0.310872 0 0.0841597 0.159004 0.225289 0.283913 
0.335793 0.381792 0.422692 5.86049 5.97231 5.90139 6.09275 6.02165 5.94739 
6.21902 6.15015 6.07676 5.99927 0.0641696 0 6.2135 6.13831 6.0579 
0.190437 0.13304 0.069689 6.28319 6.20694 6.12418 0.310872 0.261531 0.206423 
0.144876 0.0762451 6.28319 6.19903 0.422692 0.381792 0.335793 0.283913 0.225289 
0.159004 0.0841597 0 5.67937 5.70914 5.59016 5.74316 5.61528 5.49102 
5.78235 5.64441 5.50962 5.38246 5.8278 5.67854 5.5315 5.3926 5.26596 
5.88092 5.71897 5.55757 5.40467 5.26596 5.14407 5.94343 5.76745 5.58911 
5.41926 5.26596 5.13292 5.02016 6.01742 5.82633 5.62798 5.43724 5.26596 
5.11955 4.99789 4.89798 1.38521 1.28529 1.26302 1.16363 1.15026 1.13912 
1.01722 1.01722 1.01722 1.01722 0.845941 0.863926 0.878514 0.890581 0.900726 
0.655207 0.694072 0.725619 0.751687 0.773562 0.792164 0.456853 0.515737 0.564217 
0.604649 0.638778 0.667908 0.693022 0.265762 0.339753 0.402264 0.455383 0.500837 
0.540021 0.57405 0.603812 
