# vtk DataFile Version 4.1
vtk output
ASCII
DATASET POLYDATA
POINTS 1002 float
46.3971 97.3876 96.2662 52.476 97.9783 104.997 43.9702 102.938 97.1051 
47.1276 107.824 106.285 50.6453 102.028 99.1947 48.9435 105.14 98.5622 
44.5215 96.6413 104.035 41.5875 102.474 105.164 54.7914 105.395 107.07 
47.3043 101.085 90.0996 48.6527 101.799 110.345 41.8342 97.0312 94.9029 
46.4289 97.9596 97.0893 46.5208 98.5109 98.099 46.6708 99.0111 99.2942 
46.9272 99.4589 100.64 47.558 99.5924 102.006 48.5196 99.2826 103.073 
49.6103 98.7459 103.668 50.7792 98.221 104.014 51.8073 97.9308 104.413 
46.7571 97.7591 96.2727 47.1536 98.1991 96.319 47.6466 98.6474 96.4314 
48.1746 99.093 96.62 48.648 99.5821 96.9022 49.1174 100.109 97.3437 
49.6102 100.594 97.8719 50.0398 101.043 98.3587 50.367 101.527 98.7862 
46.0407 97.4276 96.8084 45.6745 97.5162 97.5179 45.3084 97.6312 98.3241 
44.8497 97.7982 99.1536 44.2989 97.963 100.132 44.0645 97.8553 101.167 
44.2761 97.3702 101.932 44.5273 96.813 102.556 44.5761 96.5223 103.291 
46.5743 97.0722 95.516 46.7271 96.8432 94.7502 46.9881 96.692 93.9549 
47.3565 96.7227 93.0877 47.5754 97.1168 92.2428 47.5447 97.8695 91.6493 
47.4131 98.8026 91.213 47.3161 99.7109 90.7564 47.3031 100.463 90.3835 
46.1675 96.7737 95.8157 45.9476 96.002 95.3796 45.7233 95.044 95.0301 
45.3298 94.2162 94.7846 44.6813 94.0003 94.5712 43.9104 94.4097 94.389 
43.1661 95.0278 94.3019 42.5536 95.657 94.3495 42.1302 96.3503 94.562 
52.6146 98.3324 104.485 52.6295 98.8697 104.107 52.3754 99.6237 103.943 
51.936 100.474 103.783 51.5492 101.141 103.385 51.2238 101.608 102.732 
50.9473 101.915 101.918 50.8292 101.97 101.015 50.786 101.928 100.084 
51.9231 97.6688 105.089 51.154 97.4667 105.169 50.1754 97.2539 105.219 
49.2175 96.9321 105.083 48.3839 96.5965 104.799 47.5429 96.3675 104.73 
46.6529 96.4044 104.818 45.8458 96.5881 104.699 45.1463 96.6732 104.392 
53.031 98.4351 105.366 53.5854 98.9865 105.787 54.1263 99.5909 106.217 
54.6255 100.246 106.567 55.0643 100.988 106.842 55.3223 101.896 107.084 
55.3547 102.953 107.182 55.2748 103.988 107.181 55.0983 104.818 107.163 
52.534 98.096 105.78 52.4063 98.3672 106.538 52.1771 98.6217 107.316 
51.8788 98.8717 108.135 51.4775 99.2959 108.73 50.9431 99.9102 109.065 
50.3541 100.456 109.481 49.7838 100.871 109.928 49.2089 101.33 110.202 
44.1337 103.28 98.1158 44.3566 103.624 99.2705 44.5753 104.052 100.46 
44.7401 104.706 101.554 44.9363 105.534 102.501 45.1752 106.39 103.258 
45.4709 107.104 103.938 45.9603 107.525 104.748 46.5608 107.735 105.59 
44.3565 103.206 96.9243 44.8196 103.423 96.8126 45.3054 103.65 96.7314 
45.783 103.973 96.6522 46.2851 104.268 96.72 46.7816 104.557 96.9282 
47.303 104.914 97.134 47.8733 105.129 97.4715 48.4275 105.155 97.9953 
43.6954 102.9 97.9356 43.3832 102.921 98.8473 43.0982 102.873 99.8638 
42.8634 102.758 100.961 42.5069 102.794 101.951 41.9303 102.98 102.709 
41.3726 103.108 103.372 41.1444 103.073 104.079 41.2754 102.845 104.73 
44.0583 102.781 96.0314 44.1808 102.622 94.9068 44.3646 102.443 93.7429 
44.5953 102.266 92.6135 44.8025 102.143 91.5219 44.9861 102.039 90.483 
45.3261 101.924 89.8163 45.9987 101.701 89.7156 46.744 101.379 89.9067 
43.6543 102.577 96.6663 43.2851 102.216 96.1997 42.8632 101.775 95.7378 
42.4745 101.189 95.3769 42.1691 100.536 95.0649 41.8369 99.8235 94.7887 
41.5448 99.061 94.6893 41.4838 98.3223 94.7003 41.6316 97.6389 94.7462 
47.3873 108.022 105.704 47.6582 108.161 104.94 47.9828 108.181 104.073 
48.3656 107.948 103.312 48.7178 107.449 102.737 48.9212 106.814 102.144 
48.9599 106.194 101.424 48.9094 105.706 100.555 48.8931 105.373 99.5561 
46.4679 107.588 106.423 45.7544 107.289 106.514 45.0438 106.896 106.525 
44.2954 106.423 106.515 43.595 105.856 106.486 43.0184 105.148 106.38 
42.4993 104.403 106.205 42.0661 103.733 105.93 41.7887 103.103 105.545 
47.8612 107.94 106.558 48.6873 107.89 106.774 49.602 107.772 106.98 
50.5532 107.706 107.266 51.4727 107.599 107.581 52.3515 107.299 107.713 
53.1588 106.858 107.645 53.8152 106.373 107.527 54.3344 105.866 107.343 
47.2892 107.651 106.962 47.4614 107.353 107.653 47.6527 106.964 108.341 
47.8445 106.442 108.95 47.9868 105.766 109.496 48.0844 105.022 109.963 
48.2096 104.201 110.314 48.3729 103.302 110.53 48.5249 102.478 110.534 
50.7262 102.413 98.9043 50.8566 102.744 98.5723 51.0094 103.099 98.1896 
51.0585 103.608 97.8573 50.8512 104.071 97.7386 50.3874 104.31 97.8151 
49.9292 104.522 97.9537 49.6019 104.779 98.1251 49.2813 104.982 98.3347 
51.0888 102.44 100.157 51.7085 102.88 101.08 52.5738 103.231 101.806 
53.555 103.46 102.344 54.3891 103.682 102.946 54.9653 104.049 103.75 
55.2803 104.499 104.642 55.308 104.871 105.526 55.1052 105.154 106.353 
50.2599 101.917 98.0257 49.9257 101.778 96.6517 49.7768 101.583 95.0705 
49.7499 101.447 93.4481 49.743 101.388 91.9917 49.7688 101.307 90.7879 
49.5529 101.283 90.0544 48.8661 101.318 89.9113 48.0412 101.236 90.0289 
49.4981 105.329 99.6565 50.2735 105.611 100.635 51.178 105.914 101.484 
52.0059 106.154 102.249 52.6676 106.24 103.06 53.2134 106.225 103.973 
53.7132 106.157 104.839 54.1825 105.972 105.652 54.5651 105.709 106.426 
48.7128 104.936 97.2076 48.5549 104.747 95.6656 48.5133 104.548 94.0049 
48.5279 104.291 92.438 48.5409 104.036 91.0195 48.53 103.804 89.7719 
48.4136 103.394 89.076 48.1114 102.661 89.2217 47.717 101.825 89.7233 
44.1284 96.9378 104.166 43.8379 97.4686 104.183 43.5998 98.076 104.246 
43.1994 98.6436 104.473 42.8231 99.268 104.625 42.5966 99.9829 104.674 
42.2567 100.644 104.822 41.8845 101.224 105.022 41.6837 101.836 105.135 
44.8958 96.9482 104.917 45.3203 97.3269 105.715 45.6679 97.7226 106.494 
46.0271 98.1435 107.293 46.4952 98.6149 108.064 46.9752 99.1813 108.72 
47.4041 99.8171 109.272 47.8499 100.514 109.689 48.286 101.202 110.032 
43.9892 96.3154 103.295 43.5152 96.0049 102.617 43.0115 95.9368 101.972 
42.5194 96.1139 101.258 42.2281 96.4406 100.27 42.1276 96.7092 98.9136 
42.0719 96.7492 97.6193 41.9975 96.7281 96.6017 41.9124 96.8254 95.7017 
42.1028 102.453 105.707 42.7239 102.436 106.291 43.4227 102.414 106.908 
44.1395 102.381 107.541 44.8475 102.366 108.229 45.5525 102.309 108.972 
46.2726 102.162 109.575 47.0528 102.026 109.959 47.8753 101.919 110.2 
41.1463 102.051 104.588 40.7583 101.492 103.821 40.5954 100.822 102.84 
40.714 100.109 101.837 40.9797 99.5238 100.774 41.2376 99.077 99.4942 
41.4032 98.589 98.1608 41.5074 98.059 96.919 41.6453 97.5455 95.8144 
54.5999 105.239 107.765 54.3269 104.932 108.419 53.9666 104.538 109.015 
53.4653 104.193 109.528 52.7747 103.818 109.943 51.9623 103.34 110.254 
51.0713 102.854 110.445 50.1563 102.434 110.551 49.3428 102.087 110.534 
46.5762 100.549 90.3183 45.7401 99.9765 90.6158 44.9074 99.374 90.9446 
44.1385 98.7094 91.2498 43.3603 98.0202 91.5479 42.6817 97.4239 91.8987 
42.2789 96.9921 92.4436 42.068 96.8014 93.1903 41.9307 96.8699 94.0235 
46.8356 98.3162 97.1826 47.309 98.715 97.353 46.9818 98.8374 98.2932 
47.8684 99.1291 97.5698 47.5077 99.2214 98.5667 47.1832 99.3573 99.5914 
48.3918 99.5691 97.8334 48.0691 99.6499 98.8793 47.7569 99.7579 99.9693 
47.5824 99.7782 101.036 48.8672 100.085 98.2522 48.6216 100.125 99.2963 
48.3935 100.174 100.429 48.2944 100.115 101.492 48.3531 99.8194 102.419 
49.3928 100.613 98.7904 49.1979 100.648 99.8178 49.1002 100.596 100.94 
49.068 100.429 101.961 49.1428 100.078 102.803 49.3426 99.4845 103.395 
49.9293 101.06 99.2886 49.764 101.146 100.297 49.7706 101.051 101.365 
49.8635 100.774 102.335 49.9698 100.359 103.102 50.1955 99.7358 103.619 
50.5114 98.9574 103.866 50.3969 101.479 99.7111 50.3054 101.575 100.69 
50.3569 101.506 101.675 50.5735 101.187 102.571 50.8018 100.722 103.276 
51.0986 100.057 103.732 51.4648 99.2414 103.944 51.7174 98.4904 104.108 
46.9455 97.5388 95.4522 47.1785 97.3908 94.6131 47.3973 98.0425 95.4104 
47.5357 97.3365 93.7575 47.7242 97.952 94.5162 47.9234 98.5548 95.4841 
47.9153 97.4768 92.7718 48.0853 98.0149 93.5985 48.2449 98.5667 94.5385 
48.4373 99.1014 95.658 48.1732 97.9113 91.8474 48.4423 98.2558 92.5571 
48.5694 98.7401 93.5445 48.7329 99.2186 94.6306 48.9173 99.6802 95.9459 
48.2582 98.6753 91.2284 48.811 98.7217 91.5989 48.9522 99.0731 92.4931 
49.0311 99.4799 93.5787 49.1754 99.8681 94.8916 49.3675 100.247 96.4228 
48.1658 99.6334 90.7483 48.9848 99.4986 90.8798 49.3248 99.6269 91.5179 
49.3328 99.9442 92.5674 49.3719 100.234 93.8566 49.4926 100.529 95.4088 
49.732 100.802 96.9882 48.0605 100.518 90.3431 48.9182 100.44 90.3373 
49.4853 100.404 90.7077 49.5692 100.582 91.6299 49.5464 100.783 92.8932 
49.5783 100.972 94.405 49.7049 101.197 96.0326 50.0013 101.377 97.5222 
48.6082 102.07 89.5438 49.1252 102.973 89.0256 49.5102 102.202 89.4414 
49.3276 103.668 89.1145 49.945 103.074 89.2233 50.0065 102.167 89.9159 
49.1832 103.95 90.2057 49.8682 103.593 89.8736 50.191 102.899 90.2673 
50.023 102.082 91.0963 49.0356 104.111 91.778 49.518 103.776 91.3673 
49.9653 103.307 91.3891 50.137 102.66 91.8758 49.9884 101.98 92.6291 
49.0033 104.344 93.452 49.3619 103.989 93.1002 49.7113 103.601 93.0105 
50.0549 103.126 93.2022 50.1555 102.477 93.687 49.9927 101.941 94.3575 
49.0089 104.568 95.2128 49.3766 104.272 94.8671 49.7243 103.943 94.7042 
50.0863 103.61 94.7649 50.2873 103.051 95.0623 50.2402 102.44 95.5475 
50.0541 102.083 96.1066 49.0805 104.76 96.9024 49.4342 104.533 96.6074 
49.8061 104.249 96.3834 50.2533 104.017 96.2953 50.5613 103.64 96.4125 
50.6047 103.04 96.7502 50.4731 102.573 97.1973 50.3243 102.275 97.6301 
51.2676 102.816 99.8941 51.47 103.152 99.5672 51.9763 103.243 100.83 
51.6408 103.543 99.206 52.2845 103.575 100.463 52.93 103.607 101.497 
51.6021 104.061 99.0117 52.5221 104.031 100.081 53.3103 104.018 101.023 
53.8942 103.915 101.982 51.2066 104.456 99.0874 52.4015 104.606 99.9978 
53.5358 104.637 100.645 54.1512 104.516 101.564 54.5298 104.301 102.737 
50.6375 104.648 99.2307 51.8154 104.945 100.203 53.2189 105.225 100.718 
54.1132 105.217 101.421 54.4654 105.013 102.622 54.8401 104.776 103.767 
[...]
POINT_DATA 1002
SCALARS Color_Map_Phi float
LOOKUP_TABLE default
6.28319 3.14159 6.28319 3.14159 4.71239 4.71239 1.5708 1.5708 3.69517 
5.72961 2.58802 0.553574 6.28319 6.28319 6.28319 6.28319 3.14159 3.14159 
3.14159 3.14159 3.14159 6.1053 5.8988 5.67687 5.45995 5.26596 5.10322 
4.97131 4.86569 4.78095 0.177881 0.384387 0.606312 0.823235 1.01722 1.17997 
1.31187 1.4175 1.50223 6.18928 6.10703 6.03531 5.97283 5.91832 5.87061 
5.82869 5.79168 5.75886 0.0939024 0.176153 0.247873 0.310351 0.364864 0.412573 
0.454497 0.491504 0.524326 3.31947 3.52598 3.7479 3.96483 4.15881 4.32156 
4.45346 4.55909 4.64383 2.96371 2.75721 2.53528 2.31836 2.12437 1.96162 
1.82972 1.72409 1.63936 3.2355 3.31775 3.38947 3.45194 3.50646 3.55417 
3.59609 3.6331 3.66592 3.04769 2.96544 2.89372 2.83124 2.77673 2.72902 
2.6871 2.65009 2.61727 6.28319 6.28319 6.28319 6.28319 3.14159 3.14159 
3.14159 3.14159 3.14159 6.1053 5.8988 5.67687 5.45995 5.26596 5.10322 
4.97131 4.86569 4.78095 0.177881 0.384387 0.606312 0.823235 1.01722 1.17997 
1.31187 1.4175 1.50223 6.18928 6.10703 6.03531 5.97283 5.91832 5.87061 
5.82869 5.79168 5.75886 0.0939024 0.176153 0.247873 0.310351 0.364864 0.412573 
0.454497 0.491504 0.524326 3.31947 3.52598 3.7479 3.96483 4.15881 4.32156 
4.45346 4.55909 4.64383 2.96371 2.75721 2.53528 2.31836 2.12437 1.96162 
1.82972 1.72409 1.63936 3.2355 3.31775 3.38947 3.45194 3.50646 3.55417 
3.59609 3.6331 3.66592 3.04769 2.96544 2.89372 2.83124 2.77673 2.72902 
2.6871 2.65009 2.61727 4.71239 4.71239 4.71239 4.71239 4.71239 4.71239 
4.71239 4.71239 4.71239 4.60879 4.49914 4.3857 4.27128 4.15881 4.05096 
3.94976 3.85646 3.77161 4.81599 4.92564 5.03907 5.1535 5.26596 5.37381 
5.47502 5.56831 5.65317 4.60879 4.49914 4.3857 4.27128 4.15881 4.05096 
3.94976 3.85646 3.77161 4.81599 4.92564 5.03907 5.1535 5.26596 5.37381 
5.47502 5.56831 5.65317 1.5708 1.5708 1.5708 1.5708 1.5708 1.5708 
1.5708 1.5708 1.5708 1.6744 1.78405 1.89748 2.01191 2.12437 2.23222 
2.33343 2.42672 2.51157 1.4672 1.35755 1.24411 1.12969 1.01722 0.909371 
0.808166 0.714871 0.63002 1.6744 1.78405 1.89748 2.01191 2.12437 2.23222 
2.33343 2.42672 2.51157 1.4672 1.35755 1.24411 1.12969 1.01722 0.909371 
0.808166 0.714871 0.63002 3.60077 3.49669 3.38395 3.26458 3.14159 3.01861 
2.89924 2.78649 2.68241 5.82401 5.92808 6.04083 6.1602 6.28319 0.122983 
0.242354 0.355101 0.459179 6.05603 5.78856 5.97021 5.51259 5.60297 5.78856 
5.26596 5.26596 5.26596 5.26596 5.06749 5.0121 4.91556 4.71239 4.15881 
4.91556 4.83537 4.71239 4.50922 4.15881 3.63622 4.80045 4.71239 4.58941 
4.41268 4.15881 3.82181 3.45456 4.71239 4.62433 4.50922 4.35729 4.15881 
3.91219 3.63622 3.36875 6.01742 5.94343 5.82633 5.88092 5.76745 5.62798 
5.8278 5.71897 5.58911 5.43724 5.78235 5.67854 5.55757 5.41926 5.26596 
5.74316 5.64441 5.5315 5.40467 5.26596 5.11955 5.70914 5.61528 5.50962 
5.3926 5.26596 5.13292 4.99789 5.67937 5.59016 5.49102 5.38246 5.26596 
5.14407 5.02016 4.89798 5.56831 5.47502 5.47502 5.37381 5.37381 5.37381 
5.26596 5.26596 5.26596 5.26596 5.1535 5.1535 5.1535 5.1535 5.1535 
5.03907 5.03907 5.03907 5.03907 5.03907 5.03907 4.92564 4.92564 4.92564 
4.92564 4.92564 4.92564 4.92564 4.81599 4.81599 4.81599 4.81599 4.81599 
4.81599 4.81599 4.81599 4.60879 4.60879 4.49914 4.60879 4.49914 4.3857 
4.60879 4.49914 4.3857 4.27128 4.60879 4.49914 4.3857 4.27128 4.15881 
4.60879 4.49914 4.3857 4.27128 4.15881 4.05096 4.60879 4.49914 4.3857 
4.27128 4.15881 4.05096 3.94976 4.60879 4.49914 4.3857 4.27128 4.15881 
4.05096 3.94976 3.85646 4.5268 4.40462 4.42689 4.28071 4.29185 4.30523 
4.15881 4.15881 4.15881 4.15881 4.04232 4.03217 4.02011 4.00552 3.98753 
3.93376 3.91515 3.89328 3.86721 3.83566 3.7968 3.83461 3.8095 3.78037 
3.74624 3.70581 3.65733 3.59845 3.7454 3.71564 3.68161 3.64243 3.59698 
3.54386 3.48135 3.40735 3.56428 3.45246 3.52338 3.33203 3.40312 3.47739 
3.20576 3.27463 3.34802 3.42551 3.07742 3.14159 3.21128 3.28647 3.36688 
2.95116 3.00855 3.0719 3.14159 3.21784 3.3006 2.83072 2.88006 2.93517 
2.99672 3.06535 3.14159 3.22575 2.7189 2.7598 2.8058 2.85768 2.9163 
2.98259 3.05743 3.14159 3.56428 3.52338 3.45246 3.47739 3.40312 3.33203 
3.42551 3.34802 3.27463 3.20576 3.36688 3.28647 3.21128 3.14159 3.07742 
3.3006 3.21784 3.14159 3.0719 3.00855 2.95116 3.22575 3.14159 3.06535 
2.99672 2.93517 2.88006 2.83072 3.14159 3.05743 2.98259 2.9163 2.85768 
2.8058 2.7598 2.7189 4.5268 4.42689 4.40462 4.30523 4.29185 4.28071 
4.15881 4.15881 4.15881 4.15881 3.98753 4.00552 4.02011 4.03217 4.04232 
3.7968 3.83566 3.86721 3.89328 3.91515 3.93376 3.59845 3.65733 3.70581 
3.74624 3.78037 3.8095 3.83461 3.40735 3.48135 3.54386 3.59698 3.64243 
3.68161 3.71564 3.7454 4.71239 4.80045 4.62433 4.91556 4.71239 4.50922 
5.06749 4.83537 4.58941 4.35729 5.26596 5.0121 4.71239 4.41268 4.15881 
5.51259 5.26596 4.91556 4.50922 4.15881 3.91219 5.78856 5.60297 5.26596 
4.71239 4.15881 3.82181 3.63622 6.05603 5.97021 5.78856 5.26596 4.15881 
3.63622 3.45456 3.36875 0.227158 0.494626 0.312971 0.770593 0.680215 0.494626 
1.01722 1.01722 1.01722 1.01722 1.2157 1.27109 1.36763 1.5708 2.12437 
1.36763 1.44781 1.5708 1.77397 2.12437 2.64697 1.48273 1.5708 1.69378 
1.8705 2.12437 2.46138 2.82862 1.5708 1.65886 1.77397 1.9259 2.12437 
2.371 2.64697 2.91443 1.75639 1.87857 1.8563 2.00248 1.99133 1.97796 
2.12437 2.12437 2.12437 2.12437 2.24087 2.25101 2.26308 2.27767 2.29565 
2.34943 2.36803 2.38991 2.41597 2.44752 2.48639 2.44857 2.47368 2.50281 
2.53694 2.57738 2.62586 2.68474 2.53778 2.56754 2.60157 2.64076 2.68621 
2.73933 2.80184 2.87583 1.6744 1.6744 1.78405 1.6744 1.78405 1.89748 
1.6744 1.78405 1.89748 2.01191 1.6744 1.78405 1.89748 2.01191 2.12437 
1.6744 1.78405 1.89748 2.01191 2.12437 2.23222 1.6744 1.78405 1.89748 
2.01191 2.12437 2.23222 2.33343 1.6744 1.78405 1.89748 2.01191 2.12437 
2.23222 2.33343 2.42672 1.4672 1.35755 1.4672 1.24411 1.35755 1.4672 
1.12969 1.24411 1.35755 1.4672 1.01722 1.12969 1.24411 1.35755 1.4672 
0.909371 1.01722 1.12969 1.24411 1.35755 1.4672 0.808166 0.909371 1.01722 
1.12969 1.24411 1.35755 1.4672 0.714871 0.808166 0.909371 1.01722 1.12969 
1.24411 1.35755 1.4672 0.603812 0.57405 0.693022 0.540021 0.667908 0.792164 
0.500837 0.638778 0.773562 0.900726 0.455383 0.604649 0.751687 0.890581 1.01722 
0.402264 0.564217 0.725619 0.878514 1.01722 1.13912 0.339753 0.515737 0.694072 
0.863926 1.01722 1.15026 1.26302 0.265762 0.456853 0.655207 0.845941 1.01722 
1.16363 1.28529 1.38521 0.227158 0.312971 0.494626 0.494626 0.680215 0.770593 
1.01722 1.01722 1.01722 1.01722 2.12437 1.5708 1.36763 1.27109 1.2157 
2.64697 2.12437 1.77397 1.5708 1.44781 1.36763 2.82862 2.46138 2.12437 
1.8705 1.69378 1.5708 1.48273 2.91443 2.64697 2.371 2.12437 1.9259 
1.77397 1.65886 1.5708 1.75639 1.8563 1.87857 1.97796 1.99133 2.00248 
2.12437 2.12437 2.12437 2.12437 2.29565 2.27767 2.26308 2.25101 2.24087 
2.48639 2.44752 2.41597 2.38991 2.36803 2.34943 2.68474 2.62586 2.57738 
2.53694 2.50281 2.47368 2.44857 2.87583 2.80184 2.73933 2.68621 2.64076 
2.60157 2.56754 2.53778 5.86049 5.90139 5.97231 5.94739 6.02165 6.09275 
5.99927 6.07676 6.15015 6.21902 6.0579 6.13831 6.2135 0 0.0641696 
6.12418 6.20694 6.28319 0.069689 0.13304 0.190437 6.19903 0 0.0762451 
0.144876 0.206423 0.261531 0.310872 0 0.0841597 0.159004 0.225289 0.283913 
0.335793 0.381792 0.422692 5.86049 5.97231 5.90139 6.09275 6.02165 5.94739 
6.21902 6.15015 6.07676 5.99927 0.0641696 0 6.2135 6.13831 6.0579 
0.190437 0.13304 0.069689 6.28319 6.20694 6.12418 0.310872 0.261531 0.206423 
0.144876 0.0762451 6.28319 6.19903 0.422692 0.381792 0.335793 0.283913 0.225289 
0.159004 0.0841597 0 5.67937 5.70914 5.59016 5.74316 5.61528 5.49102 
5.78235 5.64441 5.50962 5.38246 5.8278 5.67854 5.5315 5.3926 5.26596 
5.88092 5.71897 5.55757 5.40467 5.26596 5.14407 5.94343 5.76745 5.58911 
5.41926 5.26596 5.13292 5.02016 6.01742 5.82633 5.62798 5.43724 5.26596 
5.11955 4.99789 4.89798 1.38521 1.28529 1.26302 1.16363 1.15026 1.13912 
1.01722 1.01722 1.01722 1.01722 0.845941 0.863926 0.878514 0.890581 0.900726 
0.655207 0.694072 0.725619 0.751687 0.773562 0.792164 0.456853 0.515737 0.564217 
0.604649 0.638778 0.667908 0.693022 0.265762 0.339753 0.402264 0.455383 0.500837 
0.540021 0.57405 0.603812 
