# vtk DataFile Version 4.1
vtk output
ASCII
DATASET POLYDATA
POINTS 1002 float
45.668 95.6602 97.7918 48.1395 100.398 107.09 43.4683 104.407 91.5382 
45.4719 108.876 100.927 53.2748 101.541 99.491 51.6603 106.806 94.8459 
37.6378 96.8772 105.318 37.5049 102.769 101.395 54.0068 107.217 105.605 
48.5777 98.9072 91.1365 42.5882 104.603 108.979 40.7997 96.3224 95.876 
45.6614 96.3537 98.5514 45.69 97.0613 99.4022 45.77 97.7293 100.345 
45.9306 98.2861 101.387 46.2181 98.7369 102.506 46.587 99.1169 103.618 
46.9716 99.4732 104.643 47.3748 99.8086 105.574 47.7958 100.086 106.419 
46.1188 96.1861 97.741 46.667 96.8257 97.7385 47.3161 97.5331 97.7774 
48.1007 98.1922 97.8918 48.9731 98.8238 98.0757 49.8017 99.5647 98.3144 
50.6055 100.307 98.6041 51.5212 100.819 98.9518 52.4398 101.195 99.2624 
45.2701 95.6276 98.4463 44.8062 95.638 99.2717 44.1586 95.7152 100.196 
43.2756 95.8613 101.138 42.2816 95.9708 102.186 41.2923 95.8589 103.324 
40.2826 95.7231 104.262 39.26 95.9338 104.787 38.3441 96.3789 105.074 
45.9739 95.2508 97.0335 46.2874 94.8123 96.3037 46.6222 94.5371 95.6086 
47.0444 94.5285 94.8752 47.5996 94.8418 94.0618 48.1328 95.3477 93.2782 
48.5054 96.0199 92.5545 48.6128 96.979 91.9656 48.5921 98.006 91.5193 
45.5004 94.8708 97.4467 45.3311 93.9093 97.0805 45.0068 92.9706 96.8344 
44.431 92.5393 96.5735 43.7774 92.9094 96.2497 43.1395 93.6755 95.9216 
42.4294 94.3928 95.7652 41.702 95.0043 95.7722 41.1556 95.6649 95.825 
48.8346 100.552 106.537 49.5918 100.712 105.943 50.4414 100.801 105.353 
51.3301 100.825 104.688 52.0721 100.893 103.882 52.5748 101.029 102.998 
52.9198 101.166 102.102 53.1579 101.279 101.212 53.2639 101.406 100.33 
47.2715 100.007 107.259 46.3296 99.5847 107.338 45.3048 99.0896 107.362 
44.1587 98.5841 107.309 42.9437 98.1581 107.107 41.7195 97.8205 106.74 
40.5696 97.4951 106.362 39.4597 97.2365 105.97 38.4933 97.0354 105.627 
48.8987 100.872 107.32 49.7532 101.501 107.454 50.6578 102.177 107.537 
51.6052 102.82 107.602 52.5936 103.536 107.658 53.426 104.413 107.598 
53.8911 105.3 107.305 54.0539 106.095 106.809 54.09 106.756 106.233 
47.8587 100.584 107.734 47.4456 100.918 108.295 46.9404 101.315 108.788 
46.3701 101.697 109.321 45.6968 102.143 109.807 44.9358 102.718 110.139 
44.1538 103.355 110.18 43.4744 103.917 109.933 42.9659 104.332 109.483 
43.6438 104.815 92.2343 43.8411 105.259 93.0575 44.0546 105.755 94.0023 
44.2669 106.259 95.0277 44.4961 106.764 96.0819 44.7435 107.275 97.1493 
44.9734 107.765 98.2015 45.1694 108.213 99.1784 45.3322 108.588 100.084 
44.016 104.8 91.0585 44.6777 105.178 90.717 45.4783 105.532 90.6243 
46.4255 105.819 90.8288 47.4584 106.081 91.2773 48.4482 106.265 91.9819 
49.3307 106.43 92.7395 50.1581 106.577 93.4746 50.9523 106.705 94.1729 
43.0355 104.268 92.4569 42.5392 104.119 93.449 42.0094 103.968 94.5539 
41.4179 103.795 95.7637 40.7303 103.613 96.9305 39.9832 103.443 98.0019 
39.2411 103.256 99.0094 38.5621 103.051 99.8912 37.9792 102.89 100.659 
43.6069 104.199 90.5872 43.7239 103.88 89.6686 44.0185 103.443 89.0631 
44.6434 102.889 89.0255 45.5091 102.285 89.3887 46.2743 101.634 89.7684 
46.9136 100.905 90.0321 47.5231 100.168 90.3966 48.0854 99.5059 90.8108 
43.0528 103.865 91.5204 42.6004 103.182 91.6609 42.1087 102.385 91.9519 
41.677 101.491 92.387 41.3478 100.455 92.9379 41.0709 99.3082 93.5444 
40.8979 98.2518 94.1808 40.8443 97.4529 94.804 40.8422 96.8197 95.3668 
46.0479 109.11 100.337 46.7111 109.277 99.6437 47.4426 109.359 98.8715 
48.2298 109.299 98.1003 49.046 109.006 97.4153 49.7339 108.588 96.796 
50.3185 108.141 96.212 50.8467 107.666 95.6775 51.3065 107.22 95.2207 
44.8428 108.324 100.989 44.1381 107.679 101.082 43.3212 107.015 101.203 
42.379 106.401 101.34 41.371 105.803 101.469 40.3879 105.194 101.548 
39.4805 104.58 101.564 38.6782 103.975 101.526 38.026 103.366 101.467 
45.9951 109.205 101.463 46.6861 109.44 102.084 47.6238 109.447 102.635 
48.6517 109.18 103.041 49.6006 108.671 103.374 50.4935 108.148 103.809 
51.5236 107.899 104.349 52.5785 107.809 104.871 53.4141 107.598 105.296 
45.238 108.705 101.849 44.9968 108.4 102.822 44.7366 107.971 103.814 
44.4184 107.506 104.783 44.047 107.064 105.737 43.7102 106.586 106.603 
43.3978 106.067 107.349 43.1163 105.531 107.99 42.8434 105.046 108.528 
53.683 101.902 99.0261 54.035 102.333 98.4836 54.2087 102.874 97.8686 
54.2554 103.543 97.2286 54.1904 104.272 96.6024 53.8999 104.994 96.1048 
53.3679 105.626 95.741 52.7878 106.141 95.3979 52.2336 106.533 95.0813 
54.0257 101.876 100.164 54.6782 102.319 100.878 55.2598 102.824 101.641 
55.8305 103.371 102.451 56.3262 104.045 103.296 56.4455 104.92 104.101 
56.043 105.745 104.704 55.4487 106.386 105.124 54.7311 106.856 105.398 
52.7808 101.403 98.5128 52.3633 101.097 97.4468 52.043 100.648 96.2652 
51.6781 100.204 95.0684 51.2875 99.7994 93.9149 51.0446 99.2784 92.8373 
50.7238 98.8569 91.8839 50.1652 98.6727 91.3154 49.3704 98.7598 91.1555 
52.1325 107.114 95.7559 52.6269 107.39 96.7357 53.1677 107.65 97.8101 
53.7184 107.879 99.0275 54.0653 107.869 100.339 54.1536 107.551 101.6 
54.1815 107.244 102.739 54.24 107.202 103.787 54.2327 107.296 104.775 
51.5472 106.284 94.0515 51.3885 105.626 93.2305 51.155 104.888 92.4495 
50.9742 104.178 91.6129 50.9095 103.424 90.7478 50.7944 102.51 90.1509 
50.3682 101.488 90.0758 49.7194 100.515 90.3456 49.0931 99.6688 90.7548 
36.7947 97.1148 105.272 35.9623 97.4394 105.173 35.2366 97.9379 104.907 
34.9383 98.6785 104.452 35.1911 99.5231 103.932 35.666 100.298 103.41 
36.0656 101.052 102.862 36.4585 101.726 102.324 36.9547 102.309 101.805 
37.5648 97.4992 105.749 37.6245 98.2648 106.242 37.826 99.142 106.785 
38.1599 99.9337 107.375 38.6543 100.697 108.011 39.3052 101.561 108.557 
40.0829 102.503 108.934 40.9643 103.346 109.078 41.8106 104.06 109.105 
37.2518 96.4038 104.813 36.9229 95.9084 104.14 36.7831 95.555 103.231 
37.0518 95.5592 102.154 37.759 95.8693 101.097 38.6454 96.1583 100.048 
39.3851 96.2268 98.9305 39.9478 96.194 97.8062 40.4167 96.2179 96.7707 
37.3851 103.071 102.189 37.3005 103.446 103.062 37.3283 103.777 104.031 
37.5655 104.022 105.127 38.0482 104.231 106.197 38.7597 104.369 107 
39.6748 104.428 107.591 40.7281 104.458 108.099 41.7349 104.53 108.572 
37.2915 102.261 100.776 37.1138 101.742 100.077 37.0535 101.096 99.4023 
37.1766 100.283 98.8005 37.5539 99.4005 98.334 38.1853 98.6404 97.9652 
38.9401 98.0222 97.5537 39.6628 97.4403 97.0358 40.2916 96.877 96.4557 
53.3731 107.33 106.237 52.5661 107.344 106.871 51.5003 107.225 107.427 
50.1684 107.05 107.929 48.772 106.818 108.401 47.3498 106.418 108.769 
45.9521 105.881 108.99 44.684 105.376 109.069 43.5737 104.969 109.068 
47.7559 98.4906 91.3253 46.8307 97.9851 91.5237 45.8766 97.4241 91.7817 
44.957 96.8849 92.0937 43.955 96.3374 92.295 42.9201 95.8545 92.5231 
42.1 95.6273 93.0483 41.6292 95.7473 93.9633 41.2575 96.0282 94.9527 
46.182 96.9074 98.54 46.8184 97.55 98.5984 46.29 97.6305 99.4431 
47.5918 98.189 98.7105 47.0348 98.225 99.5606 46.4455 98.2969 100.429 
48.5019 98.7834 98.8725 47.9571 98.7904 99.7294 47.3168 98.8504 100.597 
46.7326 98.8449 101.533 49.3979 99.4805 99.0986 48.952 99.4041 99.972 
48.3688 99.3823 100.856 47.7505 99.3387 101.784 47.1855 99.2316 102.745 
50.2721 100.223 99.3887 49.9163 100.092 100.286 49.4601 99.9657 101.199 
48.9022 99.8197 102.113 48.3101 99.6611 103.049 47.6661 99.5521 103.909 
51.2649 100.757 99.7343 50.9743 100.626 100.626 50.5953 100.485 101.559 
50.1125 100.31 102.465 49.5163 100.115 103.357 48.8218 99.9877 104.188 
48.0759 99.9189 104.909 52.3271 101.085 100.08 52.1292 100.952 100.952 
51.8054 100.832 101.863 51.3735 100.701 102.77 50.7908 100.554 103.643 
50.0409 100.447 104.442 49.2265 100.38 105.134 48.4631 100.267 105.776 
46.4401 95.8981 96.9728 46.7898 95.6591 96.2247 47.0287 96.6449 96.9381 
47.1818 95.5842 95.4793 47.4451 96.5165 96.1574 47.7476 97.4203 96.9687 
47.6993 95.6981 94.6839 47.9116 96.5457 95.3663 48.2606 97.3438 96.1677 
48.6063 98.136 97.1076 48.402 95.8689 93.8431 48.5285 96.6325 94.5478 
48.8051 97.3975 95.3418 49.1896 98.1227 96.3115 49.5148 98.8511 97.3398 
49.0836 96.1782 92.9857 49.2988 96.7271 93.6865 49.4311 97.5071 94.4961 
49.7117 98.2415 95.4604 50.0868 98.907 96.5584 50.3334 99.6478 97.6123 
49.4253 96.8408 92.1937 49.9302 97.0543 92.761 50.0303 97.7312 93.6267 
50.19 98.4598 94.6248 50.5455 99.0899 95.712 50.8765 99.7251 96.8466 
51.1262 100.383 97.9232 49.4256 97.8228 91.6135 50.1277 97.8097 91.9641 
50.488 98.1863 92.7314 50.6183 98.8357 93.7543 50.9051 99.4199 94.8254 
51.3103 99.9197 95.983 51.6164 100.484 97.1383 51.9737 100.936 98.2498 
49.9333 99.5953 90.8118 50.6447 100.532 90.5097 50.7383 99.6292 91.1333 
51.2452 101.599 90.4909 51.4191 100.641 91.0608 51.3046 99.8753 91.872 
51.5101 102.652 90.954 51.9134 101.691 91.3421 52.0008 100.812 91.9597 
51.703 100.196 92.9197 51.5303 103.549 91.8123 52.0482 102.732 92.0657 
52.3987 101.82 92.4669 52.3827 101.061 93.2023 52.074 100.568 94.1329 
51.6639 104.325 92.6859 52.1056 103.672 93.005 52.5766 102.879 93.323 
52.8396 102.032 93.8399 52.7772 101.383 94.62 52.4652 100.946 95.4816 
51.9014 105.139 93.4893 52.355 104.555 93.8465 52.7781 103.903 94.2415 
53.0881 103.149 94.7403 53.2247 102.39 95.375 53.1154 101.801 96.1056 
52.8009 101.388 96.8155 52.105 105.916 94.2889 52.6179 105.413 94.6292 
53.1149 104.82 95.0147 53.493 104.147 95.4756 53.6926 103.394 96.0515 
53.6726 102.71 96.7434 53.5052 102.163 97.3894 53.1947 101.732 97.9997 
54.4437 102.3 99.6587 54.7327 102.833 99.0592 55.0938 102.801 100.332 
54.845 103.517 98.4014 55.3458 103.429 99.7036 55.6524 103.405 101.078 
54.8102 104.305 97.7515 55.3482 104.28 99.0575 55.7849 104.216 100.462 
56.118 104.167 101.889 54.6089 105.122 97.1646 55.1814 105.204 98.406 
55.6587 105.206 99.805 56.0814 105.115 101.271 56.4303 105.023 102.744 
54.0885 105.839 96.7564 54.7735 106.019 97.873 55.3242 106.137 99.1562 
55.7429 106.068 100.593 56.1121 105.93 102.102 56.2845 105.865 103.529 
[...]
POINT_DATA 1002
SCALARS Color_Map_Phi float
LOOKUP_TABLE default
6.28319 3.14159 6.28319 3.14159 4.71239 4.71239 1.5708 1.5708 3.69517 
5.72961 2.58802 0.553574 6.28319 6.28319 6.28319 6.28319 3.14159 3.14159 
3.14159 3.14159 3.14159 6.1053 5.8988 5.67687 5.45995 5.26596 5.10322 
4.97131 4.86569 4.78095 0.177881 0.384387 0.606312 0.823235 1.01722 1.17997 
1.31187 1.4175 1.50223 6.18928 6.10703 6.03531 5.97283 5.91832 5.87061 
5.82869 5.79168 5.75886 0.0939024 0.176153 0.247873 0.310351 0.364864 0.412573 
0.454497 0.491504 0.524326 3.31947 3.52598 3.7479 3.96483 4.15881 4.32156 
4.45346 4.55909 4.64383 2.96371 2.75721 2.53528 2.31836 2.12437 1.96162 
1.82972 1.72409 1.63936 3.2355 3.31775 3.38947 3.45194 3.50646 3.55417 
3.59609 3.6331 3.66592 3.04769 2.96544 2.89372 2.83124 2.77673 2.72902 
2.6871 2.65009 2.61727 6.28319 6.28319 6.28319 6.28319 3.14159 3.14159 
3.14159 3.14159 3.14159 6.1053 5.8988 5.67687 5.45995 5.26596 5.10322 
4.97131 4.86569 4.78095 0.177881 0.384387 0.606312 0.823235 1.01722 1.17997 
1.31187 1.4175 1.50223 6.18928 6.10703 6.03531 5.97283 5.91832 5.87061 
5.82869 5.79168 5.75886 0.0939024 0.176153 0.247873 0.310351 0.364864 0.412573 
0.454497 0.491504 0.524326 3.31947 3.52598 3.7479 3.96483 4.15881 4.32156 
4.45346 4.55909 4.64383 2.96371 2.75721 2.53528 2.31836 2.12437 1.96162 
1.82972 1.72409 1.63936 3.2355 3.31775 3.38947 3.45194 3.50646 3.55417 
3.59609 3.6331 3.66592 3.04769 2.96544 2.89372 2.83124 2.77673 2.72902 
2.6871 2.65009 2.61727 4.71239 4.71239 4.71239 4.71239 4.71239 4.71239 
4.71239 4.71239 4.71239 4.60879 4.49914 4.3857 4.27128 4.15881 4.05096 
3.94976 3.85646 3.77161 4.81599 4.92564 5.03907 5.1535 5.26596 5.37381 
5.47502 5.56831 5.65317 4.60879 4.49914 4.3857 4.27128 4.15881 4.05096 
3.94976 3.85646 3.77161 4.81599 4.92564 5.03907 5.1535 5.26596 5.37381 
5.47502 5.56831 5.65317 1.5708 1.5708 1.5708 1.5708 1.5708 1.5708 
1.5708 1.5708 1.5708 1.6744 1.78405 1.89748 2.01191 2.12437 2.23222 
2.33343 2.42672 2.51157 1.4672 1.35755 1.24411 1.12969 1.01722 0.909371 
0.808166 0.714871 0.63002 1.6744 1.78405 1.89748 2.01191 2.12437 2.23222 
2.33343 2.42672 2.51157 1.4672 1.35755 1.24411 1.12969 1.01722 0.909371 
0.808166 0.714871 0.63002 3.60077 3.49669 3.38395 3.26458 3.14159 3.01861 
2.89924 2.78649 2.68241 5.82401 5.92808 6.04083 6.1602 6.28319 0.122983 
0.242354 0.355101 0.459179 6.05603 5.78856 5.97021 5.51259 5.60297 5.78856 
5.26596 5.26596 5.26596 5.26596 5.06749 5.0121 4.91556 4.71239 4.15881 
4.91556 4.83537 4.71239 4.50922 4.15881 3.63622 4.80045 4.71239 4.58941 
4.41268 4.15881 3.82181 3.45456 4.71239 4.62433 4.50922 4.35729 4.15881 
3.91219 3.63622 3.36875 6.01742 5.94343 5.82633 5.88092 5.76745 5.62798 
5.8278 5.71897 5.58911 5.43724 5.78235 5.67854 5.55757 5.41926 5.26596 
5.74316 5.64441 5.5315 5.40467 5.26596 5.11955 5.70914 5.61528 5.50962 
5.3926 5.26596 5.13292 4.99789 5.67937 5.59016 5.49102 5.38246 5.26596 
5.14407 5.02016 4.89798 5.56831 5.47502 5.47502 5.37381 5.37381 5.37381 
5.26596 5.26596 5.26596 5.26596 5.1535 5.1535 5.1535 5.1535 5.1535 
5.03907 5.03907 5.03907 5.03907 5.03907 5.03907 4.92564 4.92564 4.92564 
4.92564 4.92564 4.92564 4.92564 4.81599 4.81599 4.81599 4.81599 4.81599 
4.81599 4.81599 4.81599 4.60879 4.60879 4.49914 4.60879 4.49914 4.3857 
4.60879 4.49914 4.3857 4.27128 4.60879 4.49914 4.3857 4.27128 4.15881 
4.60879 4.49914 4.3857 4.27128 4.15881 4.05096 4.60879 4.49914 4.3857 
4.27128 4.15881 4.05096 3.94976 4.60879 4.49914 4.3857 4.27128 4.15881 
4.05096 3.94976 3.85646 4.5268 4.40462 4.42689 4.28071 4.29185 4.30523 
4.15881 4.15881 4.15881 4.15881 4.04232 4.03217 4.02011 4.00552 3.98753 
3.93376 3.91515 3.89328 3.86721 3.83566 3.7968 3.83461 3.8095 3.78037 
3.74624 3.70581 3.65733 3.59845 3.7454 3.71564 3.68161 3.64243 3.59698 
3.54386 3.48135 3.40735 3.56428 3.45246 3.52338 3.33203 3.40312 3.47739 
3.20576 3.27463 3.34802 3.42551 3.07742 3.14159 3.21128 3.28647 3.36688 
2.95116 3.00855 3.0719 3.14159 3.21784 3.3006 2.83072 2.88006 2.93517 
2.99672 3.06535 3.14159 3.22575 2.7189 2.7598 2.8058 2.85768 2.9163 
2.98259 3.05743 3.14159 3.56428 3.52338 3.45246 3.47739 3.40312 3.33203 
3.42551 3.34802 3.27463 3.20576 3.36688 3.28647 3.21128 3.14159 3.07742 
3.3006 3.21784 3.14159 3.0719 3.00855 2.95116 3.22575 3.14159 3.06535 
2.99672 2.93517 2.88006 2.83072 3.14159 3.05743 2.98259 2.9163 2.85768 
2.8058 2.7598 2.7189 4.5268 4.42689 4.40462 4.30523 4.29185 4.28071 
4.15881 4.15881 4.15881 4.15881 3.98753 4.00552 4.02011 4.03217 4.04232 
3.7968 3.83566 3.86721 3.89328 3.91515 3.93376 3.59845 3.65733 3.70581 
3.74624 3.78037 3.8095 3.83461 3.40735 3.48135 3.54386 3.59698 3.64243 
3.68161 3.71564 3.7454 4.71239 4.80045 4.62433 4.91556 4.71239 4.50922 
5.06749 4.83537 4.58941 4.35729 5.26596 5.0121 4.71239 4.41268 4.15881 
5.51259 5.26596 4.91556 4.50922 4.15881 3.91219 5.78856 5.60297 5.26596 
4.71239 4.15881 3.82181 3.63622 6.05603 5.97021 5.78856 5.26596 4.15881 
3.63622 3.45456 3.36875 0.227158 0.494626 0.312971 0.770593 0.680215 0.494626 
1.01722 1.01722 1.01722 1.01722 1.2157 1.27109 1.36763 1.5708 2.12437 
1.36763 1.44781 1.5708 1.77397 2.12437 2.64697 1.48273 1.5708 1.69378 
1.8705 2.12437 2.46138 2.82862 1.5708 1.65886 1.77397 1.9259 2.12437 
2.371 2.64697 2.91443 1.75639 1.87857 1.8563 2.00248 1.99133 1.97796 
2.12437 2.12437 2.12437 2.12437 2.24087 2.25101 2.26308 2.27767 2.29565 
2.34943 2.36803 2.38991 2.41597 2.44752 2.48639 2.44857 2.47368 2.50281 
2.53694 2.57738 2.62586 2.68474 2.53778 2.56754 2.60157 2.64076 2.68621 
2.73933 2.80184 2.87583 1.6744 1.6744 1.78405 1.6744 1.78405 1.89748 
1.6744 1.78405 1.89748 2.01191 1.6744 1.78405 1.89748 2.01191 2.12437 
1.6744 1.78405 1.89748 2.01191 2.12437 2.23222 1.6744 1.78405 1.89748 
2.01191 2.12437 2.23222 2.33343 1.6744 1.78405 1.89748 2.01191 2.12437 
2.23222 2.33343 2.42672 1.4672 1.35755 1.4672 1.24411 1.35755 1.4672 
1.12969 1.24411 1.35755 1.4672 1.01722 1.12969 1.24411 1.35755 1.4672 
0.909371 1.01722 1.12969 1.24411 1.35755 1.4672 0.808166 0.909371 1.01722 
1.12969 1.24411 1.35755 1.4672 0.714871 0.808166 0.909371 1.01722 1.12969 
1.24411 1.35755 1.4672 0.603812 0.57405 0.693022 0.540021 0.667908 0.792164 
0.500837 0.638778 0.773562 0.900726 0.455383 0.604649 0.751687 0.890581 1.01722 
0.402264 0.564217 0.725619 0.878514 1.01722 1.13912 0.339753 0.515737 0.694072 
0.863926 1.01722 1.15026 1.26302 0.265762 0.456853 0.655207 0.845941 1.01722 
1.16363 1.28529 1.38521 0.227158 0.312971 0.494626 0.494626 0.680215 0.770593 
1.01722 1.01722 1.01722 1.01722 2.12437 1.5708 1.36763 1.27109 1.2157 
2.64697 2.12437 1.77397 1.5708 1.44781 1.36763 2.82862 2.46138 2.12437 
1.8705 1.69378 1.5708 1.48273 2.91443 2.64697 2.371 2.12437 1.9259 
1.77397 1.65886 1.5708 1.75639 1.8563 1.87857 1.97796 1.99133 2.00248 
2.12437 2.12437 2.12437 2.12437 2.29565 2.27767 2.26308 2.25101 2.24087 
2.48639 2.44752 2.41597 2.38991 2.36803 2.34943 2.68474 2.62586 2.57738 
2.53694 2.50281 2.47368 2.44857 2.87583 2.80184 2.73933 2.68621 2.64076 
2.60157 2.56754 2.53778 5.86049 5.90139 5.97231 5.94739 6.02165 6.09275 
5.99927 6.07676 6.15015 6.21902 6.0579 6.13831 6.2135 0 0.0641696 
6.12418 6.20694 6.28319 0.069689 0.13304 0.190437 6.19903 0 0.0762451 
0.144876 0.206423 0.261531 0.310872 0 0.0841597 0.159004 0.225289 0.283913 
0.335793 0.381792 0.422692 5.86049 5.97231 5.90139 6.09275 6.02165 5.94739 
6.21902 6.15015 6.07676 5.99927 0.0641696 0 6.2135 6.13831 6.0579 
0.190437 0.13304 0.069689 6.28319 6.20694 6.12418 0.310872 0.261531 0.206423 
0.144876 0.0762451 6.28319 6.19903 0.422692 0.381792 0.335793 0.283913 0.225289 
0.159004 0.0841597 0 5.67937 5.70914 5.59016 5.74316 5.61528 5.49102 
5.78235 5.64441 5.50962 5.38246 5.8278 5.67854 5.5315 5.3926 5.26596 
5.88092 5.71897 5.55757 5.40467 5.26596 5.14407 5.94343 5.76745 5.58911 
5.41926 5.26596 5.13292 5.02016 6.01742 5.82633 5.62798 5.43724 5.26596 
5.11955 4.99789 4.89798 1.38521 1.28529 1.26302 1.16363 1.15026 1.13912 
1.01722 1.01722 1.01722 1.01722 0.845941 0.863926 0.878514 0.890581 0.900726 
0.655207 0.694072 0.725619 0.751687 0.773562 0.792164 0.456853 0.515737 0.564217 
0.604649 0.638778 0.667908 0.693022 0.265762 0.339753 0.402264 0.455383 0.500837 
0.540021 0.57405 0.603812 
