# vtk DataFile Version 4.1
vtk output
ASCII
DATASET POLYDATA
POINTS 1002 float
46.4782 97.3303 96.1328 51.0252 98.954 105.395 41.9797 101.853 93.7257 
43.6351 104.704 102.137 52.8559 102.047 98.7785 48.8002 104.914 95.7359 
41.2316 97.0444 103.069 36.6708 100.512 101.692 53.9309 105.33 105.013 
47.9075 100.257 90.4985 44.6733 101.497 107.848 40.8158 96.9982 94.6401 
46.5079 97.9732 96.8432 46.6359 98.5868 97.7595 46.9445 99.0371 98.9316 
47.4671 99.2127 100.24 48.1705 99.1723 101.417 48.9364 99.0979 102.366 
49.6973 98.9701 103.192 50.3404 98.8365 103.98 50.7887 98.8018 104.725 
46.8237 97.8462 96.194 47.2558 98.4559 96.3199 47.8175 99.0316 96.5271 
48.4612 99.5586 96.8572 49.1606 100.105 97.3151 49.9374 100.595 97.798 
50.7568 100.971 98.1706 51.5117 101.346 98.4381 52.2206 101.713 98.6338 
46.1566 97.2724 96.5546 45.8019 97.2675 97.1122 45.4104 97.2627 97.8208 
44.928 97.2823 98.6156 44.3261 97.3129 99.4206 43.6796 97.2628 100.248 
43.0251 97.1713 101.105 42.3597 97.0868 101.862 41.7471 97.0415 102.54 
46.6742 96.9148 95.4864 46.8714 96.541 94.8253 47.1303 96.3322 94.2285 
47.5024 96.3948 93.6598 47.9072 96.7041 92.9779 48.1977 97.216 92.2452 
48.3028 97.9219 91.6549 48.2456 98.7528 91.2338 48.0897 99.565 90.8643 
46.3189 96.5241 95.752 46.18 95.5938 95.4796 45.9525 94.6653 95.3253 
45.4699 94.3024 95.135 44.7813 94.7258 94.8647 44.1038 95.4585 94.6771 
43.4456 96.0989 94.6806 42.6658 96.6471 94.7472 41.7686 96.9884 94.7471 
51.5348 99.2498 104.889 52.0111 99.5891 104.328 52.4161 100.002 103.757 
52.7752 100.432 103.118 53.0745 100.794 102.387 53.2546 101.129 101.647 
53.2889 101.456 100.918 53.2082 101.731 100.183 53.0653 101.915 99.4484 
50.3813 98.5254 105.449 49.6465 98.1724 105.426 48.8403 97.9234 105.368 
47.7954 97.9101 105.223 46.5068 97.9832 104.846 45.0456 98.0168 104.348 
43.7347 97.8542 103.93 42.7371 97.5487 103.626 41.9642 97.2766 103.318 
51.4925 99.4237 105.714 51.9626 100.015 105.951 52.4636 100.672 106.082 
53.0474 101.381 106.18 53.628 102.12 106.201 54.1055 102.895 106.12 
54.377 103.731 105.978 54.4249 104.491 105.767 54.2508 105.02 105.416 
50.7409 98.9669 106.07 50.3234 99.0849 106.709 49.8299 99.286 107.328 
49.2435 99.4925 107.922 48.5188 99.7444 108.49 47.662 100.062 108.908 
46.7567 100.474 109.028 45.9161 100.896 108.768 45.2329 101.255 108.321 
42.0235 102.125 94.3887 42.0565 102.462 95.1022 42.0378 102.859 95.8383 
42.0553 103.243 96.6754 42.1903 103.595 97.5932 42.3917 103.908 98.5634 
42.6281 104.151 99.5672 42.9051 104.374 100.534 43.2226 104.591 101.406 
42.5055 102.232 93.443 43.0916 102.646 93.1795 43.7282 103.047 92.9811 
44.4023 103.444 92.9178 45.058 103.857 93.0061 45.7278 104.26 93.2474 
46.4896 104.553 93.6803 47.2973 104.747 94.2908 48.0691 104.846 95.0269 
41.4725 101.658 94.4081 40.9104 101.472 95.1416 40.2639 101.298 95.8997 
39.5814 101.163 96.6908 38.904 101.079 97.5175 38.2659 100.993 98.3715 
37.7233 100.878 99.2247 37.2863 100.751 100.055 36.9337 100.63 100.859 
42.2851 101.835 92.899 42.6249 101.814 92.0289 42.9322 101.793 91.0924 
43.2402 101.734 90.2258 43.8492 101.634 89.7308 44.8295 101.462 89.6994 
45.8734 101.202 89.8854 46.6783 100.893 90.0663 47.3282 100.581 90.2635 
41.6178 101.457 93.5101 41.2641 100.951 93.368 40.9573 100.296 93.3349 
40.5888 99.6201 93.2718 40.1134 99.0078 93.1326 39.6936 98.288 93.0722 
39.5848 97.4969 93.2406 39.8473 96.9908 93.6259 40.2949 96.8883 94.1202 
44.0852 104.907 101.619 44.6156 105.06 100.997 45.2305 105.132 100.303 
45.8611 105.179 99.6226 46.4557 105.236 98.9206 47.0007 105.276 98.1582 
47.5212 105.244 97.4306 47.9856 105.154 96.7942 48.437 105.044 96.2276 
42.9526 104.389 102.172 42.1989 104.016 102.204 41.342 103.652 102.226 
40.4007 103.309 102.22 39.4756 102.938 102.213 38.6504 102.529 102.215 
37.9949 102.047 102.153 37.4794 101.498 102.01 37.0307 100.982 101.855 
44.4059 104.879 102.533 45.3205 104.992 102.948 46.3569 105.107 103.333 
47.5133 105.259 103.704 48.6838 105.414 104.079 49.7583 105.549 104.427 
50.8413 105.575 104.664 51.9713 105.496 104.799 53.0339 105.402 104.895 
43.6779 104.561 102.82 43.7759 104.302 103.47 43.9173 103.929 104.084 
44.0169 103.551 104.694 44.0584 103.228 105.319 44.138 102.883 105.925 
44.3011 102.483 106.474 44.4801 102.112 106.974 44.6031 101.81 107.438 
53.0802 102.302 98.4285 53.1631 102.662 98.0012 53.0938 103.161 97.5508 
52.8141 103.724 97.1817 52.3424 104.186 96.9164 51.6867 104.485 96.6692 
50.9201 104.652 96.4051 50.1602 104.752 96.1459 49.4562 104.839 95.9174 
53.5774 102.311 99.3307 54.2295 102.634 99.953 54.905 102.987 100.564 
55.5948 103.346 101.214 56.088 103.766 102.034 56.2734 104.288 102.951 
56.0961 104.79 103.746 55.6328 105.171 104.328 54.8066 105.311 104.722 
52.2138 101.971 98.0023 51.5508 101.866 97.0305 51.0249 101.651 95.8049 
50.6612 101.352 94.4823 50.4054 101 93.2748 50.1989 100.65 92.1435 
49.9005 100.404 91.1844 49.3929 100.302 90.6406 48.6921 100.275 90.4933 
49.3648 105.07 96.7377 50.0631 105.258 97.8115 50.8765 105.43 98.9314 
51.7445 105.629 99.9568 52.5343 105.87 100.903 53.2095 106.056 101.902 
53.7147 106.001 102.929 53.9397 105.768 103.763 54.0093 105.533 104.422 
48.6859 104.713 94.8342 48.5874 104.435 93.8702 48.5332 104.111 92.8314 
48.5127 103.827 91.7059 48.6178 103.578 90.554 48.7333 103.129 89.8309 
48.7571 102.448 89.6217 48.5639 101.677 89.781 48.2322 100.93 90.1388 
40.4059 96.9514 103.205 39.4718 96.8401 103.348 38.5062 96.7593 103.471 
37.5935 96.8502 103.51 36.8572 97.2111 103.449 36.4648 97.821 103.287 
36.3074 98.6371 103.017 36.2798 99.4615 102.613 36.3718 100.113 102.147 
41.2374 97.2532 103.7 41.3012 97.5579 104.37 41.4763 97.9234 105.063 
41.8014 98.321 105.757 42.2954 98.7253 106.398 42.8063 99.1976 106.93 
43.2688 99.7336 107.369 43.7461 100.359 107.69 44.2106 100.98 107.858 
40.7664 96.8017 102.556 40.321 96.5534 102.019 39.9483 96.4082 101.3 
39.8102 96.3968 100.318 39.9271 96.5539 99.2586 40.213 96.8062 98.2333 
40.4971 96.9998 97.2101 40.6462 96.988 96.2191 40.7401 96.968 95.379 
36.7135 100.692 102.683 36.9191 100.872 103.671 37.3126 101.036 104.61 
37.8897 101.139 105.424 38.7214 101.188 106.034 39.8786 101.192 106.39 
41.2758 101.2 106.633 42.6458 101.272 106.962 43.783 101.38 107.392 
36.5313 100.078 100.97 36.4912 99.5218 100.22 36.5314 98.8858 99.45 
36.6937 98.3249 98.6738 37.0903 97.8219 97.8577 37.6388 97.2372 97.019 
38.295 96.7869 96.2574 38.9996 96.5994 95.5673 39.8806 96.7965 95.0439 
53.2145 105.125 105.516 52.3691 104.866 106.048 51.4014 104.552 106.579 
50.3438 104.18 107.099 49.2528 103.688 107.56 48.1947 103.097 107.884 
47.1998 102.559 108.056 46.2809 102.144 108.097 45.4441 101.807 108.017 
47.2367 99.7736 90.6682 46.5461 99.2082 90.8381 45.8223 98.6231 91.1175 
45.0301 98.0697 91.4494 44.1786 97.5439 91.682 43.3802 97.1254 91.9336 
42.7212 96.9727 92.4665 42.1112 97.0056 93.2063 41.4725 97.0368 93.9619 
46.9405 98.5081 97.0097 47.506 99.0427 97.2664 47.2016 99.0572 98.0675 
48.1665 99.5179 97.6395 47.888 99.4827 98.4928 47.6472 99.4046 99.3769 
48.8809 100.02 98.1327 48.6476 99.9099 98.9985 48.4556 99.7675 99.8673 
48.3107 99.506 100.685 49.717 100.518 98.6313 49.5083 100.371 99.4947 
49.3579 100.145 100.316 49.2287 99.84 101.07 49.1073 99.4429 101.736 
50.6836 100.859 98.9687 50.5582 100.721 99.8065 50.4346 100.467 100.61 
50.2832 100.136 101.327 50.124 99.7184 101.954 49.9447 99.2947 102.557 
51.6046 101.154 99.1692 51.6322 100.952 99.9381 51.594 100.68 100.706 
51.4347 100.371 101.45 51.1957 100.003 102.126 50.9511 99.5645 102.732 
50.6822 99.1596 103.346 52.3882 101.531 99.3204 52.5101 101.293 100.05 
52.5544 100.992 100.785 52.4473 100.683 101.532 52.1982 100.361 102.273 
51.8977 99.9624 102.943 51.5871 99.5171 103.541 51.2245 99.1329 104.145 
46.988 97.6078 95.4948 47.1752 97.4377 94.7978 47.4439 98.327 95.5842 
47.4763 97.3897 94.1587 47.6803 98.2476 94.8478 48.0495 98.9657 95.7609 
47.9446 97.4757 93.482 48.0363 98.2665 94.1254 48.3116 98.9635 94.9734 
48.7152 99.5827 96.0614 48.4568 97.681 92.6828 48.5198 98.3696 93.341 
48.6193 99.0884 94.1747 48.9413 99.7076 95.2281 49.4177 100.207 96.4996 
48.8308 98.0777 91.9239 49.0262 98.5434 92.5193 49.0143 99.2556 93.3883 
49.1557 99.946 94.4139 49.5838 100.435 95.6533 50.134 100.765 97.0012 
48.9625 98.7257 91.3466 49.3998 98.9057 91.7699 49.4826 99.422 92.6252 
49.5103 100.105 93.6745 49.7601 100.674 94.84 50.2348 101.032 96.1762 
50.8324 101.226 97.4453 48.8774 99.5175 90.8962 49.5098 99.5418 91.1476 
49.8445 99.7734 91.8588 49.9572 100.248 92.9151 50.1002 100.783 94.0625 
50.4067 101.218 95.34 50.8813 101.493 96.6637 51.5188 101.644 97.7835 
49.0033 101.028 90.1769 49.2849 101.83 89.9725 49.6425 101.121 90.5397 
49.2818 102.556 90.2791 49.7339 101.927 90.763 50.0718 101.258 91.4038 
49.168 103.113 90.9591 49.6324 102.589 91.4957 50.0829 102.047 91.9988 
50.43 101.462 92.5496 49.0701 103.505 91.9486 49.5953 103.127 92.3745 
50.1073 102.707 92.8339 50.6092 102.196 93.233 50.8147 101.666 93.7882 
49.096 103.878 93.0256 49.6852 103.616 93.3117 50.2967 103.301 93.6769 
50.8734 102.874 94.0442 51.2386 102.328 94.4874 51.2208 101.894 95.1156 
49.1888 104.258 94.0672 49.8249 104.059 94.3108 50.5171 103.826 94.6095 
51.1618 103.492 94.9322 51.6231 103 95.3144 51.8035 102.466 95.843 
51.704 102.109 96.4728 49.312 104.585 95.0311 49.9791 104.435 95.2805 
50.7181 104.269 95.5559 51.4185 104.017 95.8558 51.9763 103.625 96.1592 
52.3393 103.09 96.5394 52.4411 102.59 97.051 52.3625 102.24 97.5739 
53.7737 102.645 98.967 53.8525 103.127 98.5319 54.4402 103.091 99.543 
53.7293 103.724 98.118 54.516 103.676 99.1132 55.0879 103.568 100.169 
53.3539 104.291 97.8165 54.3383 104.291 98.764 55.0371 104.18 99.8287 
55.6078 104.005 100.932 52.709 104.696 97.6146 53.7903 104.803 98.5595 
54.6513 104.737 99.6125 55.2526 104.604 100.746 55.8314 104.474 101.879 
51.8811 104.935 97.4059 52.9645 105.168 98.4088 53.9453 105.21 99.4781 
54.6564 105.129 100.613 55.237 105.061 101.742 55.8052 104.977 102.797 
[...]
POINT_DATA 1002
SCALARS Color_Map_Phi float
LOOKUP_TABLE default
6.28319 3.14159 6.28319 3.14159 4.71239 4.71239 1.5708 1.5708 3.69517 
5.72961 2.58802 0.553574 6.28319 6.28319 6.28319 6.28319 3.14159 3.14159 
3.14159 3.14159 3.14159 6.1053 5.8988 5.67687 5.45995 5.26596 5.10322 
4.97131 4.86569 4.78095 0.177881 0.384387 0.606312 0.823235 1.01722 1.17997 
1.31187 1.4175 1.50223 6.18928 6.10703 6.03531 5.97283 5.91832 5.87061 
5.82869 5.79168 5.75886 0.0939024 0.176153 0.247873 0.310351 0.364864 0.412573 
0.454497 0.491504 0.524326 3.31947 3.52598 3.7479 3.96483 4.15881 4.32156 
4.45346 4.55909 4.64383 2.96371 2.75721 2.53528 2.31836 2.12437 1.96162 
1.82972 1.72409 1.63936 3.2355 3.31775 3.38947 3.45194 3.50646 3.55417 
3.59609 3.6331 3.66592 3.04769 2.96544 2.89372 2.83124 2.77673 2.72902 
2.6871 2.65009 2.61727 6.28319 6.28319 6.28319 6.28319 3.14159 3.14159 
3.14159 3.14159 3.14159 6.1053 5.8988 5.67687 5.45995 5.26596 5.10322 
4.97131 4.86569 4.78095 0.177881 0.384387 0.606312 0.823235 1.01722 1.17997 
1.31187 1.4175 1.50223 6.18928 6.10703 6.03531 5.97283 5.91832 5.87061 
5.82869 5.79168 5.75886 0.0939024 0.176153 0.247873 0.310351 0.364864 0.412573 
0.454497 0.491504 0.524326 3.31947 3.52598 3.7479 3.96483 4.15881 4.32156 
4.45346 4.55909 4.64383 2.96371 2.75721 2.53528 2.31836 2.12437 1.96162 
1.82972 1.72409 1.63936 3.2355 3.31775 3.38947 3.45194 3.50646 3.55417 
3.59609 3.6331 3.66592 3.04769 2.96544 2.89372 2.83124 2.77673 2.72902 
2.6871 2.65009 2.61727 4.71239 4.71239 4.71239 4.71239 4.71239 4.71239 
4.71239 4.71239 4.71239 4.60879 4.49914 4.3857 4.27128 4.15881 4.05096 
3.94976 3.85646 3.77161 4.81599 4.92564 5.03907 5.1535 5.26596 5.37381 
5.47502 5.56831 5.65317 4.60879 4.49914 4.3857 4.27128 4.15881 4.05096 
3.94976 3.85646 3.77161 4.81599 4.92564 5.03907 5.1535 5.26596 5.37381 
5.47502 5.56831 5.65317 1.5708 1.5708 1.5708 1.5708 1.5708 1.5708 
1.5708 1.5708 1.5708 1.6744 1.78405 1.89748 2.01191 2.12437 2.23222 
2.33343 2.42672 2.51157 1.4672 1.35755 1.24411 1.12969 1.01722 0.909371 
0.808166 0.714871 0.63002 1.6744 1.78405 1.89748 2.01191 2.12437 2.23222 
2.33343 2.42672 2.51157 1.4672 1.35755 1.24411 1.12969 1.01722 0.909371 
0.808166 0.714871 0.63002 3.60077 3.49669 3.38395 3.26458 3.14159 3.01861 
2.89924 2.78649 2.68241 5.82401 5.92808 6.04083 6.1602 6.28319 0.122983 
0.242354 0.355101 0.459179 6.05603 5.78856 5.97021 5.51259 5.60297 5.78856 
5.26596 5.26596 5.26596 5.26596 5.06749 5.0121 4.91556 4.71239 4.15881 
4.91556 4.83537 4.71239 4.50922 4.15881 3.63622 4.80045 4.71239 4.58941 
4.41268 4.15881 3.82181 3.45456 4.71239 4.62433 4.50922 4.35729 4.15881 
3.91219 3.63622 3.36875 6.01742 5.94343 5.82633 5.88092 5.76745 5.62798 
5.8278 5.71897 5.58911 5.43724 5.78235 5.67854 5.55757 5.41926 5.26596 
5.74316 5.64441 5.5315 5.40467 5.26596 5.11955 5.70914 5.61528 5.50962 
5.3926 5.26596 5.13292 4.99789 5.67937 5.59016 5.49102 5.38246 5.26596 
5.14407 5.02016 4.89798 5.56831 5.47502 5.47502 5.37381 5.37381 5.37381 
5.26596 5.26596 5.26596 5.26596 5.1535 5.1535 5.1535 5.1535 5.1535 
5.03907 5.03907 5.03907 5.03907 5.03907 5.03907 4.92564 4.92564 4.92564 
4.92564 4.92564 4.92564 4.92564 4.81599 4.81599 4.81599 4.81599 4.81599 
4.81599 4.81599 4.81599 4.60879 4.60879 4.49914 4.60879 4.49914 4.3857 
4.60879 4.49914 4.3857 4.27128 4.60879 4.49914 4.3857 4.27128 4.15881 
4.60879 4.49914 4.3857 4.27128 4.15881 4.05096 4.60879 4.49914 4.3857 
4.27128 4.15881 4.05096 3.94976 4.60879 4.49914 4.3857 4.27128 4.15881 
4.05096 3.94976 3.85646 4.5268 4.40462 4.42689 4.28071 4.29185 4.30523 
4.15881 4.15881 4.15881 4.15881 4.04232 4.03217 4.02011 4.00552 3.98753 
3.93376 3.91515 3.89328 3.86721 3.83566 3.7968 3.83461 3.8095 3.78037 
3.74624 3.70581 3.65733 3.59845 3.7454 3.71564 3.68161 3.64243 3.59698 
3.54386 3.48135 3.40735 3.56428 3.45246 3.52338 3.33203 3.40312 3.47739 
3.20576 3.27463 3.34802 3.42551 3.07742 3.14159 3.21128 3.28647 3.36688 
2.95116 3.00855 3.0719 3.14159 3.21784 3.3006 2.83072 2.88006 2.93517 
2.99672 3.06535 3.14159 3.22575 2.7189 2.7598 2.8058 2.85768 2.9163 
2.98259 3.05743 3.14159 3.56428 3.52338 3.45246 3.47739 3.40312 3.33203 
3.42551 3.34802 3.27463 3.20576 3.36688 3.28647 3.21128 3.14159 3.07742 
3.3006 3.21784 3.14159 3.0719 3.00855 2.95116 3.22575 3.14159 3.06535 
2.99672 2.93517 2.88006 2.83072 3.14159 3.05743 2.98259 2.9163 2.85768 
2.8058 2.7598 2.7189 4.5268 4.42689 4.40462 4.30523 4.29185 4.28071 
4.15881 4.15881 4.15881 4.15881 3.98753 4.00552 4.02011 4.03217 4.04232 
3.7968 3.83566 3.86721 3.89328 3.91515 3.93376 3.59845 3.65733 3.70581 
3.74624 3.78037 3.8095 3.83461 3.40735 3.48135 3.54386 3.59698 3.64243 
3.68161 3.71564 3.7454 4.71239 4.80045 4.62433 4.91556 4.71239 4.50922 
5.06749 4.83537 4.58941 4.35729 5.26596 5.0121 4.71239 4.41268 4.15881 
5.51259 5.26596 4.91556 4.50922 4.15881 3.91219 5.78856 5.60297 5.26596 
4.71239 4.15881 3.82181 3.63622 6.05603 5.97021 5.78856 5.26596 4.15881 
3.63622 3.45456 3.36875 0.227158 0.494626 0.312971 0.770593 0.680215 0.494626 
1.01722 1.01722 1.01722 1.01722 1.2157 1.27109 1.36763 1.5708 2.12437 
1.36763 1.44781 1.5708 1.77397 2.12437 2.64697 1.48273 1.5708 1.69378 
1.8705 2.12437 2.46138 2.82862 1.5708 1.65886 1.77397 1.9259 2.12437 
2.371 2.64697 2.91443 1.75639 1.87857 1.8563 2.00248 1.99133 1.97796 
2.12437 2.12437 2.12437 2.12437 2.24087 2.25101 2.26308 2.27767 2.29565 
2.34943 2.36803 2.38991 2.41597 2.44752 2.48639 2.44857 2.47368 2.50281 
2.53694 2.57738 2.62586 2.68474 2.53778 2.56754 2.60157 2.64076 2.68621 
2.73933 2.80184 2.87583 1.6744 1.6744 1.78405 1.6744 1.78405 1.89748 
1.6744 1.78405 1.89748 2.01191 1.6744 1.78405 1.89748 2.01191 2.12437 
1.6744 1.78405 1.89748 2.01191 2.12437 2.23222 1.6744 1.78405 1.89748 
2.01191 2.12437 2.23222 2.33343 1.6744 1.78405 1.89748 2.01191 2.12437 
2.23222 2.33343 2.42672 1.4672 1.35755 1.4672 1.24411 1.35755 1.4672 
1.12969 1.24411 1.35755 1.4672 1.01722 1.12969 1.24411 1.35755 1.4672 
0.909371 1.01722 1.12969 1.24411 1.35755 1.4672 0.808166 0.909371 1.01722 
1.12969 1.24411 1.35755 1.4672 0.714871 0.808166 0.909371 1.01722 1.12969 
1.24411 1.35755 1.4672 0.603812 0.57405 0.693022 0.540021 0.667908 0.792164 
0.500837 0.638778 0.773562 0.900726 0.455383 0.604649 0.751687 0.890581 1.01722 
0.402264 0.564217 0.725619 0.878514 1.01722 1.13912 0.339753 0.515737 0.694072 
0.863926 1.01722 1.15026 1.26302 0.265762 0.456853 0.655207 0.845941 1.01722 
1.16363 1.28529 1.38521 0.227158 0.312971 0.494626 0.494626 0.680215 0.770593 
1.01722 1.01722 1.01722 1.01722 2.12437 1.5708 1.36763 1.27109 1.2157 
2.64697 2.12437 1.77397 1.5708 1.44781 1.36763 2.82862 2.46138 2.12437 
1.8705 1.69378 1.5708 1.48273 2.91443 2.64697 2.371 2.12437 1.9259 
1.77397 1.65886 1.5708 1.75639 1.8563 1.87857 1.97796 1.99133 2.00248 
2.12437 2.12437 2.12437 2.12437 2.29565 2.27767 2.26308 2.25101 2.24087 
2.48639 2.44752 2.41597 2.38991 2.36803 2.34943 2.68474 2.62586 2.57738 
2.53694 2.50281 2.47368 2.44857 2.87583 2.80184 2.73933 2.68621 2.64076 
2.60157 2.56754 2.53778 5.86049 5.90139 5.97231 5.94739 6.02165 6.09275 
5.99927 6.07676 6.15015 6.21902 6.0579 6.13831 6.2135 0 0.0641696 
6.12418 6.20694 6.28319 0.069689 0.13304 0.190437 6.19903 0 0.0762451 
0.144876 0.206423 0.261531 0.310872 0 0.0841597 0.159004 0.225289 0.283913 
0.335793 0.381792 0.422692 5.86049 5.97231 5.90139 6.09275 6.02165 5.94739 
6.21902 6.15015 6.07676 5.99927 0.0641696 0 6.2135 6.13831 6.0579 
0.190437 0.13304 0.069689 6.28319 6.20694 6.12418 0.310872 0.261531 0.206423 
0.144876 0.0762451 6.28319 6.19903 0.422692 0.381792 0.335793 0.283913 0.225289 
0.159004 0.0841597 0 5.67937 5.70914 5.59016 5.74316 5.61528 5.49102 
5.78235 5.64441 5.50962 5.38246 5.8278 5.67854 5.5315 5.3926 5.26596 
5.88092 5.71897 5.55757 5.40467 5.26596 5.14407 5.94343 5.76745 5.58911 
5.41926 5.26596 5.13292 5.02016 6.01742 5.82633 5.62798 5.43724 5.26596 
5.11955 4.99789 4.89798 1.38521 1.28529 1.26302 1.16363 1.15026 1.13912 
1.01722 1.01722 1.01722 1.01722 0.845941 0.863926 0.878514 0.890581 0.900726 
0.655207 0.694072 0.725619 0.751687 0.773562 0.792164 0.456853 0.515737 0.564217 
0.604649 0.638778 0.667908 0.693022 0.265762 0.339753 0.402264 0.455383 0.500837 
0.540021 0.57405 0.603812 
