# vtk DataFile Version 4.1
vtk output
ASCII
DATASET POLYDATA
POINTS 1002 float
46.5569 96.5257 95.3893 49.2113 100.154 103.78 42.8172 103.638 96.3177 
43.9257 106.767 104.259 52.5276 102.884 98.8764 50.1472 106.588 97.9761 
42.079 93.654 101.907 37.2153 100.354 102.219 55.2129 105.91 105.746 
47.8629 101.521 89.8184 44.5844 101.269 106.793 41.9887 96.8287 95.7834 
46.4738 97.254 96.0579 46.4025 97.9636 96.8481 46.3471 98.6747 97.6657 
46.3288 99.3178 98.5321 46.3841 99.8531 99.5428 46.6553 100.197 100.583 
47.246 100.25 101.541 47.9753 100.168 102.414 48.6475 100.146 103.183 
46.8255 97.2139 95.3429 47.2287 97.8769 95.3521 47.687 98.6486 95.4109 
48.1811 99.4666 95.5507 48.7674 100.235 95.8503 49.5202 100.847 96.3073 
50.3196 101.382 96.9159 51.0954 101.918 97.6371 51.838 102.433 98.3216 
46.2801 96.3579 95.9009 46.0023 96.2879 96.5609 45.5682 96.3227 97.3349 
44.8013 96.4074 98.2003 43.9626 96.0588 99.1559 43.5788 94.9766 100.061 
43.5767 93.7224 100.798 43.351 93.1002 101.318 42.7469 93.2201 101.662 
46.7744 96.234 94.7571 47.0879 95.9964 94.2033 47.4338 96.1243 93.5643 
47.8867 96.4824 92.8521 48.2064 97.1093 92.1392 48.2895 97.9465 91.5446 
48.123 98.9962 91.0395 47.9838 99.9925 90.6353 47.9378 100.826 90.2216 
46.5217 95.49 95.1133 46.4995 94.2595 94.9343 46.3557 93.1769 94.8477 
45.8283 92.9171 94.7161 45.0026 93.3939 94.5269 44.1854 94.1416 94.4694 
43.5632 94.9473 94.6784 43.0502 95.7362 95.0409 42.5278 96.3958 95.4381 
49.8803 100.382 103.431 50.5007 100.661 103.061 51.0523 101.066 102.699 
51.551 101.498 102.306 51.976 101.879 101.841 52.3014 102.231 101.332 
52.4933 102.543 100.783 52.6025 102.685 100.138 52.6029 102.779 99.5004 
48.1939 99.9513 103.786 47.1956 99.667 103.741 46.3085 99.2727 103.627 
45.5623 98.7281 103.383 44.8851 98.02 103.049 44.2188 97.1214 102.717 
43.6201 95.9917 102.465 43.1637 94.8374 102.28 42.633 94.1193 102.075 
50.2074 100.325 104.133 51.2095 100.533 104.523 52.1466 100.923 104.936 
52.8971 101.653 105.233 53.7167 102.49 105.397 54.5405 103.189 105.456 
55.1531 103.826 105.543 55.4013 104.544 105.7 55.3608 105.292 105.775 
49.1544 99.9362 104.308 49.1336 99.5632 104.839 49.0651 99.2152 105.426 
48.7983 99.0971 106.086 48.1874 99.3475 106.616 47.4072 99.7526 106.893 
46.6803 100.185 106.891 45.9492 100.587 106.854 45.2442 100.963 106.825 
42.7352 104.029 96.9491 42.6773 104.441 97.6578 42.6537 104.859 98.4197 
42.6862 105.294 99.2283 42.808 105.683 100.147 43.0177 105.948 101.155 
43.2283 106.195 102.086 43.3855 106.506 102.875 43.6023 106.717 103.611 
43.3955 103.98 96.2057 43.9996 104.347 96.0959 44.6462 104.734 96.0272 
45.3476 105.147 96.0308 46.0732 105.543 96.1212 46.8502 105.888 96.31 
47.7296 106.184 96.5977 48.6337 106.43 96.9758 49.443 106.562 97.4566 
42.1614 103.521 96.8181 41.4625 103.346 97.3472 40.8047 103.063 97.9909 
40.2041 102.712 98.7663 39.5585 102.381 99.4905 38.8235 102.101 100.042 
38.1604 101.794 100.544 37.73 101.383 101.145 37.4383 100.875 101.73 
43.2464 103.49 95.5809 43.6641 103.343 94.6939 44.0828 103.183 93.7 
44.537 102.991 92.6458 44.991 102.77 91.6004 45.3231 102.583 90.5295 
45.7196 102.384 89.794 46.3663 102.139 89.5189 47.1679 101.838 89.5901 
42.5061 103.199 96.0321 42.1884 102.704 95.705 41.9484 102.08 95.4312 
41.7869 101.281 95.2603 41.6627 100.42 95.1995 41.562 99.5364 95.2128 
41.5328 98.6103 95.2812 41.6014 97.7915 95.3863 41.7758 97.2387 95.5811 
44.5765 106.996 103.762 45.372 107.212 103.185 46.1835 107.371 102.562 
46.9482 107.451 101.85 47.6846 107.55 101 48.4015 107.641 100.159 
49.0274 107.547 99.4918 49.5475 107.241 98.9813 49.926 106.897 98.473 
43.0996 106.488 104.331 42.2699 106.039 104.339 41.3944 105.48 104.298 
40.4944 104.885 104.181 39.555 104.331 103.989 38.7105 103.727 103.782 
38.1826 102.94 103.457 37.8368 102.047 102.984 37.5063 101.155 102.538 
44.7691 106.842 104.531 45.8736 106.846 104.72 47.1854 106.804 104.813 
48.5755 106.782 104.939 49.9433 106.837 105.15 51.3235 106.952 105.408 
52.6453 106.956 105.688 53.7605 106.728 105.905 54.5766 106.344 105.919 
43.7918 106.582 104.937 43.7603 106.294 105.549 43.7452 105.935 106.132 
43.7428 105.398 106.582 43.7448 104.744 106.932 43.8139 103.932 107.126 
43.9968 103.071 107.21 44.2044 102.323 107.162 44.4086 101.751 106.981 
52.8996 103.201 98.7078 53.1738 103.583 98.5091 53.3027 104.075 98.3223 
53.2537 104.689 98.1466 52.9961 105.248 98.0099 52.486 105.59 98.0001 
51.8311 105.823 98.041 51.206 106.102 98.032 50.6627 106.37 97.9972 
53.3808 103.195 99.649 54.4275 103.435 100.344 55.7098 103.569 100.993 
56.8489 103.731 101.567 57.5907 104.084 102.258 57.752 104.601 103.188 
57.5315 105.109 104.098 56.8687 105.452 104.751 56.035 105.725 105.272 
52.0537 102.711 97.8457 51.6083 102.499 96.6364 51.2433 102.226 95.3006 
50.9461 101.944 93.9653 50.6747 101.711 92.6099 50.4337 101.548 91.2426 
50.1672 101.505 90.1812 49.5844 101.572 89.7801 48.7423 101.599 89.7647 
50.7518 106.762 98.8047 51.4771 106.942 99.6629 52.3268 107.113 100.494 
53.224 107.224 101.3 54.0812 107.282 102.158 54.8052 107.215 103.074 
55.3386 107.007 103.956 55.5654 106.698 104.686 55.474 106.333 105.282 
49.899 106.27 97.1057 49.6526 105.88 96.0814 49.3995 105.424 94.9165 
49.1617 104.927 93.6678 48.9379 104.394 92.3795 48.7678 103.889 91.0535 
48.6859 103.433 89.9177 48.5598 102.902 89.3698 48.2599 102.239 89.4434 
41.3302 93.7413 101.959 40.5037 93.9202 102.047 39.5635 94.2618 102.182 
38.5755 94.7309 102.371 37.8494 95.3264 102.517 37.4299 96.2549 102.552 
37.1841 97.4291 102.519 37.0597 98.5403 102.456 37.0965 99.4946 102.366 
41.8106 94.4026 102.239 41.5456 95.2622 102.67 41.4733 96.1273 103.246 
41.638 96.9964 103.869 42.0109 97.8042 104.508 42.5247 98.5182 105.123 
43.1154 99.2677 105.623 43.696 100.058 106.039 44.1849 100.731 106.433 
41.8245 93.0515 101.54 41.4816 92.5167 100.99 41.188 92.2467 100.214 
40.9611 92.4534 99.3749 40.7489 93.0915 98.7469 40.6871 94.1054 98.3622 
40.9592 95.2852 97.9422 41.4161 96.1852 97.316 41.7883 96.6487 96.5447 
37.2992 100.318 102.894 37.4946 100.322 103.662 37.7993 100.349 104.535 
38.21 100.336 105.365 38.8918 100.34 105.894 39.9539 100.517 106.024 
41.2433 100.834 106.004 42.5286 101.075 106.177 43.6506 101.203 106.499 
37.3048 99.795 101.74 37.6268 99.09 101.154 37.9546 98.3847 100.412 
38.1214 97.856 99.5336 38.344 97.4968 98.7424 38.8776 97.1789 98.066 
39.6242 97.0124 97.5484 40.4801 97.0063 97.0854 41.2769 96.9771 96.4915 
54.5256 105.715 106.246 53.6457 105.408 106.502 52.4077 104.944 106.446 
51.0333 104.385 106.598 49.8313 103.853 107.228 48.7164 103.333 107.792 
47.4877 102.755 107.842 46.3152 102.129 107.512 45.3773 101.625 107.165 
47.0781 100.957 90.1508 46.3361 100.316 90.4452 45.6119 99.6282 90.7584 
44.8096 98.8524 91.1642 44.2241 98.1323 91.7875 43.8726 97.6351 92.6241 
43.4852 97.2773 93.4464 42.9655 96.9948 94.1582 42.4681 96.8521 94.9272 
46.8307 97.8605 96.0726 47.285 98.5386 96.1593 46.8418 98.5638 96.9217 
47.7852 99.3243 96.2973 47.3908 99.204 97.0939 46.9001 99.236 97.8244 
48.3719 100.111 96.5459 47.9966 99.9401 97.3356 47.5806 99.7936 98.1222 
47.013 99.7992 98.84 49.1549 100.741 96.9801 48.7841 100.6 97.717 
48.3726 100.417 98.4904 47.8747 100.28 99.2467 47.2555 100.244 99.9455 
50.0576 101.249 97.5736 49.7717 101.1 98.2943 49.3739 100.946 99.0212 
48.8942 100.789 99.7329 48.3677 100.61 100.406 47.8121 100.41 100.997 
50.9485 101.773 98.2941 50.776 101.6 98.986 50.4946 101.399 99.6798 
50.0663 101.22 100.337 49.5985 100.992 100.935 49.1201 100.649 101.46 
48.5736 100.347 101.929 51.7887 102.314 98.9664 51.7019 102.173 99.6527 
51.5393 101.949 100.304 51.246 101.656 100.91 50.834 101.385 101.468 
50.3812 101.025 101.933 49.8715 100.617 102.341 49.2881 100.316 102.747 
47.0804 97.0596 94.7186 47.4031 97.0889 94.0855 47.5239 97.8837 94.6855 
47.8906 97.2312 93.3705 47.9288 98.0069 93.9966 48.0471 98.7228 94.6886 
48.4982 97.4929 92.5652 48.4668 98.1876 93.2309 48.4721 98.8935 93.9928 
48.5804 99.5822 94.8642 48.9375 97.9968 91.8104 49.0882 98.4425 92.41 
48.9861 99.1143 93.2356 49.0427 99.7704 94.1947 49.2334 100.364 95.2194 
49.0118 98.8461 91.1523 49.5164 98.9397 91.6078 49.5585 99.3801 92.4332 
49.5586 99.9809 93.4904 49.7293 100.556 94.5961 49.9729 101.025 95.7248 
48.8874 99.8882 90.6083 49.6623 99.7733 90.827 49.9942 99.8691 91.553 
50.0665 100.241 92.7053 50.1831 100.764 93.9557 50.4003 101.249 95.1574 
50.6867 101.624 96.4015 48.818 100.821 90.1397 49.6849 100.719 90.1778 
50.1921 100.651 90.7324 50.3813 100.784 91.888 50.5261 101.109 93.2592 
50.7288 101.525 94.5742 51.0056 101.907 95.8731 51.3842 102.199 97.166 
49.1765 102.296 89.5043 49.3329 102.916 89.7758 49.8468 102.279 89.8702 
49.2943 103.429 90.7555 49.7808 102.92 90.6887 50.2025 102.313 90.8163 
49.3783 103.949 92.0843 49.7669 103.484 91.9752 50.2071 103.051 91.9725 
50.5747 102.445 92.15 49.6144 104.54 93.3923 50.0141 104.099 93.2484 
50.4555 103.695 93.1999 50.8774 103.203 93.2557 51.0426 102.551 93.521 
49.8698 105.103 94.6834 50.331 104.731 94.5124 50.8185 104.367 94.4073 
51.2793 103.906 94.4117 51.525 103.286 94.5751 51.4595 102.682 94.9102 
50.1224 105.587 95.9482 50.6242 105.25 95.8349 51.161 104.961 95.7309 
51.6357 104.592 95.7072 51.9473 104.013 95.8235 52.0041 103.376 96.06 
51.8532 102.882 96.3588 50.388 106.018 97.064 50.9135 105.69 97.0473 
51.5069 105.408 96.9996 52.0498 105.15 96.9633 52.4054 104.694 97.055 
52.5643 104.068 97.2375 52.5305 103.501 97.4498 52.3437 103.075 97.6637 
53.8107 103.516 99.4494 54.1176 103.938 99.217 54.9036 103.793 100.119 
54.2199 104.541 99.0248 55.172 104.33 99.8907 56.0422 104.075 100.781 
54.0518 105.219 98.887 55.114 105.046 99.7519 56.0525 104.788 100.637 
56.8554 104.489 101.484 53.5528 105.742 98.8623 54.6841 105.721 99.7304 
55.6692 105.539 100.626 56.5138 105.305 101.485 57.2812 104.995 102.347 
52.8108 106.044 98.9208 53.9398 106.173 99.798 55.0219 106.106 100.681 
55.9237 105.937 101.541 56.7131 105.745 102.414 57.3628 105.497 103.34 
[...]
POINT_DATA 1002
SCALARS Color_Map_Phi float
LOOKUP_TABLE default
6.28319 3.14159 6.28319 3.14159 4.71239 4.71239 1.5708 1.5708 3.69517 
5.72961 2.58802 0.553574 6.28319 6.28319 6.28319 6.28319 3.14159 3.14159 
3.14159 3.14159 3.14159 6.1053 5.8988 5.67687 5.45995 5.26596 5.10322 
4.97131 4.86569 4.78095 0.177881 0.384387 0.606312 0.823235 1.01722 1.17997 
1.31187 1.4175 1.50223 6.18928 6.10703 6.03531 5.97283 5.91832 5.87061 
5.82869 5.79168 5.75886 0.0939024 0.176153 0.247873 0.310351 0.364864 0.412573 
0.454497 0.491504 0.524326 3.31947 3.52598 3.7479 3.96483 4.15881 4.32156 
4.45346 4.55909 4.64383 2.96371 2.75721 2.53528 2.31836 2.12437 1.96162 
1.82972 1.72409 1.63936 3.2355 3.31775 3.38947 3.45194 3.50646 3.55417 
3.59609 3.6331 3.66592 3.04769 2.96544 2.89372 2.83124 2.77673 2.72902 
2.6871 2.65009 2.61727 6.28319 6.28319 6.28319 6.28319 3.14159 3.14159 
3.14159 3.14159 3.14159 6.1053 5.8988 5.67687 5.45995 5.26596 5.10322 
4.97131 4.86569 4.78095 0.177881 0.384387 0.606312 0.823235 1.01722 1.17997 
1.31187 1.4175 1.50223 6.18928 6.10703 6.03531 5.97283 5.91832 5.87061 
5.82869 5.79168 5.75886 0.0939024 0.176153 0.247873 0.310351 0.364864 0.412573 
0.454497 0.491504 0.524326 3.31947 3.52598 3.7479 3.96483 4.15881 4.32156 
4.45346 4.55909 4.64383 2.96371 2.75721 2.53528 2.31836 2.12437 1.96162 
1.82972 1.72409 1.63936 3.2355 3.31775 3.38947 3.45194 3.50646 3.55417 
3.59609 3.6331 3.66592 3.04769 2.96544 2.89372 2.83124 2.77673 2.72902 
2.6871 2.65009 2.61727 4.71239 4.71239 4.71239 4.71239 4.71239 4.71239 
4.71239 4.71239 4.71239 4.60879 4.49914 4.3857 4.27128 4.15881 4.05096 
3.94976 3.85646 3.77161 4.81599 4.92564 5.03907 5.1535 5.26596 5.37381 
5.47502 5.56831 5.65317 4.60879 4.49914 4.3857 4.27128 4.15881 4.05096 
3.94976 3.85646 3.77161 4.81599 4.92564 5.03907 5.1535 5.26596 5.37381 
5.47502 5.56831 5.65317 1.5708 1.5708 1.5708 1.5708 1.5708 1.5708 
1.5708 1.5708 1.5708 1.6744 1.78405 1.89748 2.01191 2.12437 2.23222 
2.33343 2.42672 2.51157 1.4672 1.35755 1.24411 1.12969 1.01722 0.909371 
0.808166 0.714871 0.63002 1.6744 1.78405 1.89748 2.01191 2.12437 2.23222 
2.33343 2.42672 2.51157 1.4672 1.35755 1.24411 1.12969 1.01722 0.909371 
0.808166 0.714871 0.63002 3.60077 3.49669 3.38395 3.26458 3.14159 3.01861 
2.89924 2.78649 2.68241 5.82401 5.92808 6.04083 6.1602 6.28319 0.122983 
0.242354 0.355101 0.459179 6.05603 5.78856 5.97021 5.51259 5.60297 5.78856 
5.26596 5.26596 5.26596 5.26596 5.06749 5.0121 4.91556 4.71239 4.15881 
4.91556 4.83537 4.71239 4.50922 4.15881 3.63622 4.80045 4.71239 4.58941 
4.41268 4.15881 3.82181 3.45456 4.71239 4.62433 4.50922 4.35729 4.15881 
3.91219 3.63622 3.36875 6.01742 5.94343 5.82633 5.88092 5.76745 5.62798 
5.8278 5.71897 5.58911 5.43724 5.78235 5.67854 5.55757 5.41926 5.26596 
5.74316 5.64441 5.5315 5.40467 5.26596 5.11955 5.70914 5.61528 5.50962 
5.3926 5.26596 5.13292 4.99789 5.67937 5.59016 5.49102 5.38246 5.26596 
5.14407 5.02016 4.89798 5.56831 5.47502 5.47502 5.37381 5.37381 5.37381 
5.26596 5.26596 5.26596 5.26596 5.1535 5.1535 5.1535 5.1535 5.1535 
5.03907 5.03907 5.03907 5.03907 5.03907 5.03907 4.92564 4.92564 4.92564 
4.92564 4.92564 4.92564 4.92564 4.81599 4.81599 4.81599 4.81599 4.81599 
4.81599 4.81599 4.81599 4.60879 4.60879 4.49914 4.60879 4.49914 4.3857 
4.60879 4.49914 4.3857 4.27128 4.60879 4.49914 4.3857 4.27128 4.15881 
4.60879 4.49914 4.3857 4.27128 4.15881 4.05096 4.60879 4.49914 4.3857 
4.27128 4.15881 4.05096 3.94976 4.60879 4.49914 4.3857 4.27128 4.15881 
4.05096 3.94976 3.85646 4.5268 4.40462 4.42689 4.28071 4.29185 4.30523 
4.15881 4.15881 4.15881 4.15881 4.04232 4.03217 4.02011 4.00552 3.98753 
3.93376 3.91515 3.89328 3.86721 3.83566 3.7968 3.83461 3.8095 3.78037 
3.74624 3.70581 3.65733 3.59845 3.7454 3.71564 3.68161 3.64243 3.59698 
3.54386 3.48135 3.40735 3.56428 3.45246 3.52338 3.33203 3.40312 3.47739 
3.20576 3.27463 3.34802 3.42551 3.07742 3.14159 3.21128 3.28647 3.36688 
2.95116 3.00855 3.0719 3.14159 3.21784 3.3006 2.83072 2.88006 2.93517 
2.99672 3.06535 3.14159 3.22575 2.7189 2.7598 2.8058 2.85768 2.9163 
2.98259 3.05743 3.14159 3.56428 3.52338 3.45246 3.47739 3.40312 3.33203 
3.42551 3.34802 3.27463 3.20576 3.36688 3.28647 3.21128 3.14159 3.07742 
3.3006 3.21784 3.14159 3.0719 3.00855 2.95116 3.22575 3.14159 3.06535 
2.99672 2.93517 2.88006 2.83072 3.14159 3.05743 2.98259 2.9163 2.85768 
2.8058 2.7598 2.7189 4.5268 4.42689 4.40462 4.30523 4.29185 4.28071 
4.15881 4.15881 4.15881 4.15881 3.98753 4.00552 4.02011 4.03217 4.04232 
3.7968 3.83566 3.86721 3.89328 3.91515 3.93376 3.59845 3.65733 3.70581 
3.74624 3.78037 3.8095 3.83461 3.40735 3.48135 3.54386 3.59698 3.64243 
3.68161 3.71564 3.7454 4.71239 4.80045 4.62433 4.91556 4.71239 4.50922 
5.06749 4.83537 4.58941 4.35729 5.26596 5.0121 4.71239 4.41268 4.15881 
5.51259 5.26596 4.91556 4.50922 4.15881 3.91219 5.78856 5.60297 5.26596 
4.71239 4.15881 3.82181 3.63622 6.05603 5.97021 5.78856 5.26596 4.15881 
3.63622 3.45456 3.36875 0.227158 0.494626 0.312971 0.770593 0.680215 0.494626 
1.01722 1.01722 1.01722 1.01722 1.2157 1.27109 1.36763 1.5708 2.12437 
1.36763 1.44781 1.5708 1.77397 2.12437 2.64697 1.48273 1.5708 1.69378 
1.8705 2.12437 2.46138 2.82862 1.5708 1.65886 1.77397 1.9259 2.12437 
2.371 2.64697 2.91443 1.75639 1.87857 1.8563 2.00248 1.99133 1.97796 
2.12437 2.12437 2.12437 2.12437 2.24087 2.25101 2.26308 2.27767 2.29565 
2.34943 2.36803 2.38991 2.41597 2.44752 2.48639 2.44857 2.47368 2.50281 
2.53694 2.57738 2.62586 2.68474 2.53778 2.56754 2.60157 2.64076 2.68621 
2.73933 2.80184 2.87583 1.6744 1.6744 1.78405 1.6744 1.78405 1.89748 
1.6744 1.78405 1.89748 2.01191 1.6744 1.78405 1.89748 2.01191 2.12437 
1.6744 1.78405 1.89748 2.01191 2.12437 2.23222 1.6744 1.78405 1.89748 
2.01191 2.12437 2.23222 2.33343 1.6744 1.78405 1.89748 2.01191 2.12437 
2.23222 2.33343 2.42672 1.4672 1.35755 1.4672 1.24411 1.35755 1.4672 
1.12969 1.24411 1.35755 1.4672 1.01722 1.12969 1.24411 1.35755 1.4672 
0.909371 1.01722 1.12969 1.24411 1.35755 1.4672 0.808166 0.909371 1.01722 
1.12969 1.24411 1.35755 1.4672 0.714871 0.808166 0.909371 1.01722 1.12969 
1.24411 1.35755 1.4672 0.603812 0.57405 0.693022 0.540021 0.667908 0.792164 
0.500837 0.638778 0.773562 0.900726 0.455383 0.604649 0.751687 0.890581 1.01722 
0.402264 0.564217 0.725619 0.878514 1.01722 1.13912 0.339753 0.515737 0.694072 
0.863926 1.01722 1.15026 1.26302 0.265762 0.456853 0.655207 0.845941 1.01722 
1.16363 1.28529 1.38521 0.227158 0.312971 0.494626 0.494626 0.680215 0.770593 
1.01722 1.01722 1.01722 1.01722 2.12437 1.5708 1.36763 1.27109 1.2157 
2.64697 2.12437 1.77397 1.5708 1.44781 1.36763 2.82862 2.46138 2.12437 
1.8705 1.69378 1.5708 1.48273 2.91443 2.64697 2.371 2.12437 1.9259 
1.77397 1.65886 1.5708 1.75639 1.8563 1.87857 1.97796 1.99133 2.00248 
2.12437 2.12437 2.12437 2.12437 2.29565 2.27767 2.26308 2.25101 2.24087 
2.48639 2.44752 2.41597 2.38991 2.36803 2.34943 2.68474 2.62586 2.57738 
2.53694 2.50281 2.47368 2.44857 2.87583 2.80184 2.73933 2.68621 2.64076 
2.60157 2.56754 2.53778 5.86049 5.90139 5.97231 5.94739 6.02165 6.09275 
5.99927 6.07676 6.15015 6.21902 6.0579 6.13831 6.2135 0 0.0641696 
6.12418 6.20694 6.28319 0.069689 0.13304 0.190437 6.19903 0 0.0762451 
0.144876 0.206423 0.261531 0.310872 0 0.0841597 0.159004 0.225289 0.283913 
0.335793 0.381792 0.422692 5.86049 5.97231 5.90139 6.09275 6.02165 5.94739 
6.21902 6.15015 6.07676 5.99927 0.0641696 0 6.2135 6.13831 6.0579 
0.190437 0.13304 0.069689 6.28319 6.20694 6.12418 0.310872 0.261531 0.206423 
0.144876 0.0762451 6.28319 6.19903 0.422692 0.381792 0.335793 0.283913 0.225289 
0.159004 0.0841597 0 5.67937 5.70914 5.59016 5.74316 5.61528 5.49102 
5.78235 5.64441 5.50962 5.38246 5.8278 5.67854 5.5315 5.3926 5.26596 
5.88092 5.71897 5.55757 5.40467 5.26596 5.14407 5.94343 5.76745 5.58911 
5.41926 5.26596 5.13292 5.02016 6.01742 5.82633 5.62798 5.43724 5.26596 
5.11955 4.99789 4.89798 1.38521 1.28529 1.26302 1.16363 1.15026 1.13912 
1.01722 1.01722 1.01722 1.01722 0.845941 0.863926 0.878514 0.890581 0.900726 
0.655207 0.694072 0.725619 0.751687 0.773562 0.792164 0.456853 0.515737 0.564217 
0.604649 0.638778 0.667908 0.693022 0.265762 0.339753 0.402264 0.455383 0.500837 
0.540021 0.57405 0.603812 
