# vtk DataFile Version 4.1
vtk output
ASCII
DATASET POLYDATA
POINTS 1002 float
46.4352 95.947 96.7387 50.6634 97.8703 105.357 43.5416 103.197 94.6194 
45.5179 106.998 102.953 50.8137 101.162 98.7427 49.4049 105.297 95.998 
41.8342 96.8418 104.949 39.3519 102.623 103.008 53.3919 105.116 104.974 
47.2222 99.0601 91.0741 45.847 102.701 108.918 42.4437 97.2817 95.8174 
46.4961 96.6802 97.5351 46.5381 97.3891 98.4525 46.573 98.0667 99.4248 
46.6041 98.752 100.54 46.8555 99.1392 101.798 47.5295 99.0091 102.931 
48.444 98.6539 103.705 49.3077 98.3227 104.264 50.0446 98.0519 104.804 
46.7345 96.3462 96.7275 47.0536 96.8662 96.7572 47.364 97.4859 96.8593 
47.7174 98.161 97.0394 48.1681 98.7964 97.2603 48.7029 99.3564 97.5004 
49.2602 99.8487 97.7743 49.8114 100.303 98.115 50.352 100.735 98.471 
46.1477 96.0714 97.2564 45.7806 96.2905 97.8728 45.3594 96.5818 98.645 
44.8807 96.8476 99.5277 44.305 97.0632 100.466 43.7301 97.2104 101.445 
43.2774 97.1589 102.459 42.8398 96.893 103.445 42.284 96.7239 104.305 
46.5514 95.4379 96.0298 46.7175 94.9298 95.3562 46.9825 94.5322 94.7129 
47.3503 94.3903 94.0456 47.6457 94.6614 93.4085 47.7119 95.379 92.8502 
47.5908 96.3747 92.3501 47.4309 97.4018 91.8853 47.3084 98.2861 91.4685 
46.1729 95.2859 96.3443 45.8734 94.581 96.0076 45.5037 93.8271 95.775 
45.0056 93.2749 95.6725 44.4374 93.3835 95.5724 43.9576 94.1138 95.3689 
43.5547 94.9934 95.275 43.1518 95.8343 95.4143 42.77 96.6198 95.6263 
51.0262 98.1219 104.925 51.1654 98.57 104.464 51.1959 99.1259 103.988 
51.2192 99.651 103.469 51.1714 100.132 102.855 51.0506 100.554 102.134 
50.9612 100.817 101.306 50.8908 100.975 100.431 50.8476 101.083 99.562 
49.7922 97.732 105.458 48.9569 97.4334 105.562 48.1198 97.2564 105.611 
47.1098 97.356 105.581 46.0336 97.4153 105.591 45.117 97.1855 105.642 
44.2617 96.9287 105.633 43.4289 96.822 105.465 42.6001 96.7915 105.225 
51.4204 97.9599 105.656 52.0559 98.2872 105.907 52.5507 98.9427 106.072 
52.9946 99.8088 106.132 53.3862 100.713 106.154 53.6759 101.751 106.178 
53.8035 102.906 106.091 53.7692 103.927 105.813 53.6124 104.626 105.412 
50.563 97.816 106.02 50.2831 98.0311 106.664 49.8996 98.5315 107.061 
49.413 99.1939 107.341 48.8389 99.8622 107.769 48.2445 100.432 108.193 
47.6636 100.964 108.567 47.0589 101.559 108.879 46.441 102.176 109.026 
43.6581 103.534 95.3572 43.7768 103.918 96.1901 43.914 104.357 97.1022 
44.0563 104.848 98.0262 44.1851 105.37 98.919 44.376 105.874 99.7853 
44.6254 106.321 100.607 44.8877 106.66 101.425 45.1635 106.89 102.227 
43.9923 103.382 94.3545 44.473 103.62 94.1304 44.9763 103.91 93.9777 
45.5493 104.19 93.9298 46.1746 104.451 94.0138 46.8167 104.734 94.2089 
47.483 105.011 94.518 48.1796 105.192 94.9607 48.8297 105.269 95.4863 
43.1855 103.192 95.3811 42.806 103.149 96.266 42.4057 103.097 97.2348 
41.9539 103.029 98.2215 41.432 102.957 99.1594 40.8832 102.91 100.033 
40.3579 102.871 100.85 39.8909 102.784 101.611 39.5353 102.711 102.309 
43.7051 102.942 93.7411 43.9377 102.624 92.8445 44.2126 102.312 91.9346 
44.366 102.05 90.9421 44.49 101.688 90.1157 44.988 101.209 89.9399 
45.7034 100.716 90.2265 46.2985 100.185 90.5386 46.7619 99.6099 90.8138 
43.2093 102.834 94.3913 42.8907 102.375 94.2309 42.5992 101.814 94.1907 
42.3697 101.146 94.2379 42.2325 100.373 94.3516 42.1871 99.5788 94.6249 
42.2443 98.8804 95.002 42.3107 98.283 95.314 42.3848 97.7566 95.5672 
45.9001 107.167 102.334 46.319 107.261 101.61 46.8569 107.252 100.779 
47.4101 107.189 99.9562 47.9113 106.978 99.2373 48.3653 106.622 98.5614 
48.7373 106.284 97.8621 49.0111 105.991 97.1777 49.2329 105.656 96.5502 
44.8781 106.756 103.109 44.1548 106.489 103.239 43.4568 106.145 103.336 
42.7385 105.7 103.383 41.9681 105.246 103.404 41.293 104.754 103.391 
40.706 104.21 103.345 40.1682 103.642 103.261 39.7094 103.111 103.142 
46.1894 107.139 103.305 46.9778 107.206 103.687 47.9429 107.192 104.047 
49.0623 107.135 104.331 50.1488 106.983 104.515 51.0616 106.719 104.652 
51.8176 106.387 104.777 52.4401 105.953 104.865 52.9591 105.496 104.925 
45.5488 106.836 103.708 45.5785 106.588 104.449 45.614 106.293 105.199 
45.65 105.912 105.949 45.6504 105.441 106.644 45.6368 104.954 107.312 
45.6676 104.451 107.932 45.7333 103.893 108.403 45.7866 103.309 108.716 
51.0313 101.459 98.3408 51.2029 101.783 97.8573 51.3514 102.184 97.3435 
51.4451 102.711 96.8702 51.3575 103.334 96.5466 51.0639 103.956 96.3693 
50.6674 104.455 96.2194 50.2429 104.807 96.0818 49.8154 105.072 96.0133 
51.2611 101.528 99.444 51.7393 101.909 100.115 52.276 102.321 100.744 
52.8793 102.743 101.346 53.4467 103.128 101.894 53.883 103.541 102.43 
54.1284 104.079 103.116 54.0853 104.6 103.873 53.7884 104.92 104.527 
50.5182 100.931 97.7576 50.2429 100.579 96.6685 50.0261 100.103 95.5364 
49.7891 99.6552 94.4088 49.5328 99.3469 93.3458 49.3343 99.0686 92.3514 
49.0806 98.8589 91.5398 48.585 98.8398 91.1433 47.9002 98.9481 91.0747 
49.8857 105.548 96.8277 50.4444 105.805 97.6833 51.0692 106.011 98.5835 
51.7032 106.168 99.5161 52.3059 106.282 100.422 52.811 106.27 101.367 
53.13 106.075 102.408 53.2841 105.756 103.418 53.3666 105.423 104.264 
49.1761 104.901 95.1859 48.9295 104.405 94.3367 48.703 103.812 93.4269 
48.5305 103.231 92.4002 48.4398 102.72 91.3304 48.4344 102.072 90.4686 
48.364 101.299 90.0658 48.0362 100.535 90.2376 47.5836 99.7828 90.6812 
41.2775 97.1848 105.01 40.8354 97.6618 104.995 40.3773 98.2179 104.957 
39.9004 98.8647 104.839 39.4892 99.5374 104.619 39.131 100.209 104.402 
38.8929 100.959 104.178 38.9085 101.684 103.818 39.104 102.228 103.385 
41.9758 97.0896 105.636 42.2333 97.4538 106.248 42.6122 97.943 106.759 
43.0327 98.5441 107.208 43.4222 99.2474 107.632 43.8502 99.9997 108.011 
44.3669 100.735 108.367 44.8949 101.435 108.712 45.3956 102.103 108.903 
41.3945 96.8551 104.238 41.0789 96.9342 103.423 40.986 97.131 102.466 
41.0768 97.3107 101.359 41.1787 97.2711 100.206 41.3379 97.116 99.0876 
41.6413 97.0587 98.0585 41.9849 97.1126 97.1933 42.2331 97.1833 96.4598 
39.5082 102.774 103.833 39.7916 102.88 104.699 40.2278 102.957 105.504 
40.8603 103.023 106.224 41.6554 103.024 106.853 42.5382 102.969 107.383 
43.4144 102.925 107.89 44.2207 102.884 108.368 45.0238 102.809 108.729 
39.1052 102.194 102.397 38.932 101.712 101.688 38.9545 101.187 100.905 
39.2044 100.577 100.097 39.5484 99.9177 99.2781 40.069 99.3154 98.5254 
40.757 98.7638 97.8381 41.4158 98.2471 97.1355 41.9759 97.7701 96.4382 
53.119 105.061 105.639 52.7218 104.951 106.31 52.1078 104.712 106.822 
51.227 104.354 107.091 50.1669 103.97 107.313 49.1693 103.649 107.669 
48.3245 103.408 108.092 47.5284 103.197 108.514 46.6781 102.968 108.847 
46.6482 98.6599 91.2543 46.0932 98.1956 91.4495 45.4502 97.7054 91.7368 
44.7414 97.1931 91.989 44.0456 96.7152 92.2079 43.5387 96.4888 92.6717 
43.3165 96.5711 93.4438 43.1605 96.7822 94.298 42.8442 97.0368 95.0861 
46.8069 97.1146 97.5917 47.1418 97.6537 97.6817 46.8868 97.8445 98.5708 
47.5241 98.2633 97.8532 47.3174 98.3765 98.7637 46.9593 98.5729 99.6756 
47.9737 98.8689 98.1122 47.7851 98.9506 99.0342 47.4243 99.0959 100.006 
47.0591 99.2114 100.936 48.5033 99.4125 98.4031 48.2993 99.4938 99.3598 
48.0174 99.5623 100.345 47.7338 99.5324 101.323 47.5835 99.3486 102.178 
49.1195 99.868 98.6884 48.9022 99.936 99.6916 48.673 99.9641 100.669 
48.5563 99.8084 101.616 48.5289 99.4744 102.444 48.5288 99.0383 103.118 
49.7487 100.269 98.9922 49.6106 100.276 99.9914 49.4021 100.281 100.99 
49.3805 100.073 101.883 49.4624 99.6628 102.661 49.5074 99.1702 103.281 
49.4587 98.6983 103.801 50.3382 100.667 99.3098 50.3107 100.599 100.238 
50.2519 100.51 101.202 50.2499 100.283 102.08 50.3535 99.8685 102.803 
50.3865 99.3917 103.409 50.3602 98.8707 103.922 50.2857 98.3933 104.382 
46.8978 95.8876 95.9653 47.0966 95.5021 95.273 47.2745 96.4808 95.998 
47.3619 95.2916 94.5824 47.5251 96.2108 95.2877 47.6386 97.2129 96.1033 
47.7419 95.2932 93.8559 47.7556 96.1777 94.5355 47.9173 97.0648 95.3504 
48.0118 97.9992 96.2547 48.1246 95.5915 93.1631 48.1175 96.3131 93.75 
48.1356 97.1286 94.5662 48.3071 97.9211 95.4901 48.4753 98.7079 96.4639 
48.265 96.2579 92.5303 48.5449 96.5842 92.9971 48.485 97.2934 93.7703 
48.5887 97.9788 94.7388 48.8121 98.646 95.7402 48.9993 99.321 96.7301 
48.1656 97.1711 91.9665 48.7271 97.1362 92.2748 48.8884 97.5425 92.9712 
48.9421 98.1438 93.9337 49.1699 98.6821 94.9819 49.3621 99.283 96.0155 
49.5132 99.8928 97.043 48.0124 98.099 91.4895 48.6792 97.9584 91.6443 
49.0773 98.0788 92.1911 49.2301 98.4801 93.105 49.426 98.9062 94.1415 
49.669 99.3698 95.2179 49.8261 99.9481 96.3159 50.0366 100.429 97.4161 
48.3264 99.7088 90.6732 48.6816 100.501 90.439 48.9255 99.6903 90.9508 
48.7592 101.335 90.7259 49.0696 100.572 91.1416 49.2811 99.8021 91.6681 
48.7615 102.149 91.4554 49.0799 101.442 91.7554 49.3891 100.714 92.1257 
49.5353 99.9829 92.6509 48.8981 102.813 92.3801 49.2266 102.25 92.5445 
49.532 101.578 92.7979 49.769 100.861 93.1605 49.8282 100.176 93.7304 
49.095 103.411 93.3894 49.4684 102.952 93.4606 49.7604 102.397 93.6277 
50.0273 101.733 93.8876 50.165 101.03 94.3389 50.1381 100.461 94.9263 
49.3129 104.049 94.3392 49.7099 103.638 94.4248 50.035 103.154 94.5795 
50.3084 102.567 94.7782 50.5076 101.888 95.1201 50.52 101.281 95.6071 
50.4131 100.87 96.1387 49.5657 104.612 95.2045 49.9734 104.278 95.2965 
50.3589 103.854 95.4591 50.6903 103.305 95.6297 50.9147 102.664 95.8766 
50.9558 102.04 96.2838 50.8557 101.564 96.7779 50.7115 101.224 97.2876 
51.4908 101.872 99.0231 51.6853 102.257 98.5108 51.9724 102.33 99.6986 
51.8546 102.727 97.967 52.1878 102.783 99.1926 52.5004 102.835 100.35 
51.9033 103.313 97.5101 52.3326 103.309 98.6608 52.7151 103.329 99.8505 
53.097 103.307 100.927 51.7128 103.996 97.2418 52.2842 103.993 98.2522 
52.8165 103.95 99.3516 53.3011 103.888 100.41 53.6728 103.774 101.428 
51.3345 104.611 97.0776 52.0058 104.72 98.0039 52.6796 104.753 98.9854 
53.2991 104.662 99.9644 53.7654 104.528 100.969 54.0303 104.358 102.037 
[...]
POINT_DATA 1002
SCALARS Color_Map_Phi float
LOOKUP_TABLE default
6.28319 3.14159 6.28319 3.14159 4.71239 4.71239 1.5708 1.5708 3.69517 
5.72961 2.58802 0.553574 6.28319 6.28319 6.28319 6.28319 3.14159 3.14159 
3.14159 3.14159 3.14159 6.1053 5.8988 5.67687 5.45995 5.26596 5.10322 
4.97131 4.86569 4.78095 0.177881 0.384387 0.606312 0.823235 1.01722 1.17997 
1.31187 1.4175 1.50223 6.18928 6.10703 6.03531 5.97283 5.91832 5.87061 
5.82869 5.79168 5.75886 0.0939024 0.176153 0.247873 0.310351 0.364864 0.412573 
0.454497 0.491504 0.524326 3.31947 3.52598 3.7479 3.96483 4.15881 4.32156 
4.45346 4.55909 4.64383 2.96371 2.75721 2.53528 2.31836 2.12437 1.96162 
1.82972 1.72409 1.63936 3.2355 3.31775 3.38947 3.45194 3.50646 3.55417 
3.59609 3.6331 3.66592 3.04769 2.96544 2.89372 2.83124 2.77673 2.72902 
2.6871 2.65009 2.61727 6.28319 6.28319 6.28319 6.28319 3.14159 3.14159 
3.14159 3.14159 3.14159 6.1053 5.8988 5.67687 5.45995 5.26596 5.10322 
4.97131 4.86569 4.78095 0.177881 0.384387 0.606312 0.823235 1.01722 1.17997 
1.31187 1.4175 1.50223 6.18928 6.10703 6.03531 5.97283 5.91832 5.87061 
5.82869 5.79168 5.75886 0.0939024 0.176153 0.247873 0.310351 0.364864 0.412573 
0.454497 0.491504 0.524326 3.31947 3.52598 3.7479 3.96483 4.15881 4.32156 
4.45346 4.55909 4.64383 2.96371 2.75721 2.53528 2.31836 2.12437 1.96162 
1.82972 1.72409 1.63936 3.2355 3.31775 3.38947 3.45194 3.50646 3.55417 
3.59609 3.6331 3.66592 3.04769 2.96544 2.89372 2.83124 2.77673 2.72902 
2.6871 2.65009 2.61727 4.71239 4.71239 4.71239 4.71239 4.71239 4.71239 
4.71239 4.71239 4.71239 4.60879 4.49914 4.3857 4.27128 4.15881 4.05096 
3.94976 3.85646 3.77161 4.81599 4.92564 5.03907 5.1535 5.26596 5.37381 
5.47502 5.56831 5.65317 4.60879 4.49914 4.3857 4.27128 4.15881 4.05096 
3.94976 3.85646 3.77161 4.81599 4.92564 5.03907 5.1535 5.26596 5.37381 
5.47502 5.56831 5.65317 1.5708 1.5708 1.5708 1.5708 1.5708 1.5708 
1.5708 1.5708 1.5708 1.6744 1.78405 1.89748 2.01191 2.12437 2.23222 
2.33343 2.42672 2.51157 1.4672 1.35755 1.24411 1.12969 1.01722 0.909371 
0.808166 0.714871 0.63002 1.6744 1.78405 1.89748 2.01191 2.12437 2.23222 
2.33343 2.42672 2.51157 1.4672 1.35755 1.24411 1.12969 1.01722 0.909371 
0.808166 0.714871 0.63002 3.60077 3.49669 3.38395 3.26458 3.14159 3.01861 
2.89924 2.78649 2.68241 5.82401 5.92808 6.04083 6.1602 6.28319 0.122983 
0.242354 0.355101 0.459179 6.05603 5.78856 5.97021 5.51259 5.60297 5.78856 
5.26596 5.26596 5.26596 5.26596 5.06749 5.0121 4.91556 4.71239 4.15881 
4.91556 4.83537 4.71239 4.50922 4.15881 3.63622 4.80045 4.71239 4.58941 
4.41268 4.15881 3.82181 3.45456 4.71239 4.62433 4.50922 4.35729 4.15881 
3.91219 3.63622 3.36875 6.01742 5.94343 5.82633 5.88092 5.76745 5.62798 
5.8278 5.71897 5.58911 5.43724 5.78235 5.67854 5.55757 5.41926 5.26596 
5.74316 5.64441 5.5315 5.40467 5.26596 5.11955 5.70914 5.61528 5.50962 
5.3926 5.26596 5.13292 4.99789 5.67937 5.59016 5.49102 5.38246 5.26596 
5.14407 5.02016 4.89798 5.56831 5.47502 5.47502 5.37381 5.37381 5.37381 
5.26596 5.26596 5.26596 5.26596 5.1535 5.1535 5.1535 5.1535 5.1535 
5.03907 5.03907 5.03907 5.03907 5.03907 5.03907 4.92564 4.92564 4.92564 
4.92564 4.92564 4.92564 4.92564 4.81599 4.81599 4.81599 4.81599 4.81599 
4.81599 4.81599 4.81599 4.60879 4.60879 4.49914 4.60879 4.49914 4.3857 
4.60879 4.49914 4.3857 4.27128 4.60879 4.49914 4.3857 4.27128 4.15881 
4.60879 4.49914 4.3857 4.27128 4.15881 4.05096 4.60879 4.49914 4.3857 
4.27128 4.15881 4.05096 3.94976 4.60879 4.49914 4.3857 4.27128 4.15881 
4.05096 3.94976 3.85646 4.5268 4.40462 4.42689 4.28071 4.29185 4.30523 
4.15881 4.15881 4.15881 4.15881 4.04232 4.03217 4.02011 4.00552 3.98753 
3.93376 3.91515 3.89328 3.86721 3.83566 3.7968 3.83461 3.8095 3.78037 
3.74624 3.70581 3.65733 3.59845 3.7454 3.71564 3.68161 3.64243 3.59698 
3.54386 3.48135 3.40735 3.56428 3.45246 3.52338 3.33203 3.40312 3.47739 
3.20576 3.27463 3.34802 3.42551 3.07742 3.14159 3.21128 3.28647 3.36688 
2.95116 3.00855 3.0719 3.14159 3.21784 3.3006 2.83072 2.88006 2.93517 
2.99672 3.06535 3.14159 3.22575 2.7189 2.7598 2.8058 2.85768 2.9163 
2.98259 3.05743 3.14159 3.56428 3.52338 3.45246 3.47739 3.40312 3.33203 
3.42551 3.34802 3.27463 3.20576 3.36688 3.28647 3.21128 3.14159 3.07742 
3.3006 3.21784 3.14159 3.0719 3.00855 2.95116 3.22575 3.14159 3.06535 
2.99672 2.93517 2.88006 2.83072 3.14159 3.05743 2.98259 2.9163 2.85768 
2.8058 2.7598 2.7189 4.5268 4.42689 4.40462 4.30523 4.29185 4.28071 
4.15881 4.15881 4.15881 4.15881 3.98753 4.00552 4.02011 4.03217 4.04232 
3.7968 3.83566 3.86721 3.89328 3.91515 3.93376 3.59845 3.65733 3.70581 
3.74624 3.78037 3.8095 3.83461 3.40735 3.48135 3.54386 3.59698 3.64243 
3.68161 3.71564 3.7454 4.71239 4.80045 4.62433 4.91556 4.71239 4.50922 
5.06749 4.83537 4.58941 4.35729 5.26596 5.0121 4.71239 4.41268 4.15881 
5.51259 5.26596 4.91556 4.50922 4.15881 3.91219 5.78856 5.60297 5.26596 
4.71239 4.15881 3.82181 3.63622 6.05603 5.97021 5.78856 5.26596 4.15881 
3.63622 3.45456 3.36875 0.227158 0.494626 0.312971 0.770593 0.680215 0.494626 
1.01722 1.01722 1.01722 1.01722 1.2157 1.27109 1.36763 1.5708 2.12437 
1.36763 1.44781 1.5708 1.77397 2.12437 2.64697 1.48273 1.5708 1.69378 
1.8705 2.12437 2.46138 2.82862 1.5708 1.65886 1.77397 1.9259 2.12437 
2.371 2.64697 2.91443 1.75639 1.87857 1.8563 2.00248 1.99133 1.97796 
2.12437 2.12437 2.12437 2.12437 2.24087 2.25101 2.26308 2.27767 2.29565 
2.34943 2.36803 2.38991 2.41597 2.44752 2.48639 2.44857 2.47368 2.50281 
2.53694 2.57738 2.62586 2.68474 2.53778 2.56754 2.60157 2.64076 2.68621 
2.73933 2.80184 2.87583 1.6744 1.6744 1.78405 1.6744 1.78405 1.89748 
1.6744 1.78405 1.89748 2.01191 1.6744 1.78405 1.89748 2.01191 2.12437 
1.6744 1.78405 1.89748 2.01191 2.12437 2.23222 1.6744 1.78405 1.89748 
2.01191 2.12437 2.23222 2.33343 1.6744 1.78405 1.89748 2.01191 2.12437 
2.23222 2.33343 2.42672 1.4672 1.35755 1.4672 1.24411 1.35755 1.4672 
1.12969 1.24411 1.35755 1.4672 1.01722 1.12969 1.24411 1.35755 1.4672 
0.909371 1.01722 1.12969 1.24411 1.35755 1.4672 0.808166 0.909371 1.01722 
1.12969 1.24411 1.35755 1.4672 0.714871 0.808166 0.909371 1.01722 1.12969 
1.24411 1.35755 1.4672 0.603812 0.57405 0.693022 0.540021 0.667908 0.792164 
0.500837 0.638778 0.773562 0.900726 0.455383 0.604649 0.751687 0.890581 1.01722 
0.402264 0.564217 0.725619 0.878514 1.01722 1.13912 0.339753 0.515737 0.694072 
0.863926 1.01722 1.15026 1.26302 0.265762 0.456853 0.655207 0.845941 1.01722 
1.16363 1.28529 1.38521 0.227158 0.312971 0.494626 0.494626 0.680215 0.770593 
1.01722 1.01722 1.01722 1.01722 2.12437 1.5708 1.36763 1.27109 1.2157 
2.64697 2.12437 1.77397 1.5708 1.44781 1.36763 2.82862 2.46138 2.12437 
1.8705 1.69378 1.5708 1.48273 2.91443 2.64697 2.371 2.12437 1.9259 
1.77397 1.65886 1.5708 1.75639 1.8563 1.87857 1.97796 1.99133 2.00248 
2.12437 2.12437 2.12437 2.12437 2.29565 2.27767 2.26308 2.25101 2.24087 
2.48639 2.44752 2.41597 2.38991 2.36803 2.34943 2.68474 2.62586 2.57738 
2.53694 2.50281 2.47368 2.44857 2.87583 2.80184 2.73933 2.68621 2.64076 
2.60157 2.56754 2.53778 5.86049 5.90139 5.97231 5.94739 6.02165 6.09275 
5.99927 6.07676 6.15015 6.21902 6.0579 6.13831 6.2135 0 0.0641696 
6.12418 6.20694 6.28319 0.069689 0.13304 0.190437 6.19903 0 0.0762451 
0.144876 0.206423 0.261531 0.310872 0 0.0841597 0.159004 0.225289 0.283913 
0.335793 0.381792 0.422692 5.86049 5.97231 5.90139 6.09275 6.02165 5.94739 
6.21902 6.15015 6.07676 5.99927 0.0641696 0 6.2135 6.13831 6.0579 
0.190437 0.13304 0.069689 6.28319 6.20694 6.12418 0.310872 0.261531 0.206423 
0.144876 0.0762451 6.28319 6.19903 0.422692 0.381792 0.335793 0.283913 0.225289 
0.159004 0.0841597 0 5.67937 5.70914 5.59016 5.74316 5.61528 5.49102 
5.78235 5.64441 5.50962 5.38246 5.8278 5.67854 5.5315 5.3926 5.26596 
5.88092 5.71897 5.55757 5.40467 5.26596 5.14407 5.94343 5.76745 5.58911 
5.41926 5.26596 5.13292 5.02016 6.01742 5.82633 5.62798 5.43724 5.26596 
5.11955 4.99789 4.89798 1.38521 1.28529 1.26302 1.16363 1.15026 1.13912 
1.01722 1.01722 1.01722 1.01722 0.845941 0.863926 0.878514 0.890581 0.900726 
0.655207 0.694072 0.725619 0.751687 0.773562 0.792164 0.456853 0.515737 0.564217 
0.604649 0.638778 0.667908 0.693022 0.265762 0.339753 0.402264 0.455383 0.500837 
0.540021 0.57405 0.603812 
