# vtk DataFile Version 4.1
vtk output
ASCII
DATASET POLYDATA
POINTS 1002 float
46.7923 97.5309 97.2281 50.2329 100.272 107.088 42.9702 103.67 93.1308 
44.8271 105.909 103.799 54.8653 101.985 100.1 50.6157 106.006 97.643 
41.2448 97.1188 105.109 36.8511 101.495 102.317 54.4811 106.928 107.845 
49.5406 100.456 90.2845 43.4303 102.308 110.547 42.7298 96.6723 94.8317 
46.8115 98.2678 98.0257 46.8687 98.9691 98.9919 46.9993 99.5776 100.119 
47.179 100.146 101.319 47.3986 100.626 102.582 47.8534 100.809 103.855 
48.5938 100.686 104.896 49.3439 100.424 105.687 49.9083 100.231 106.391 
47.1701 98.1753 97.3183 47.6343 98.8695 97.4615 48.287 99.4417 97.7182 
49.1086 99.9236 98.085 49.9958 100.426 98.4892 50.8962 100.922 98.8539 
51.8977 101.291 99.2349 53.0314 101.516 99.6743 54.0858 101.709 99.9897 
46.4248 97.4126 97.6404 46.0014 97.3832 98.1553 45.5613 97.4133 98.8317 
45.0939 97.4512 99.6493 44.5182 97.4867 100.511 43.8777 97.5037 101.418 
43.226 97.4691 102.413 42.5532 97.4101 103.403 41.9079 97.2891 104.313 
46.9986 97.1952 96.5269 47.2299 96.9306 95.819 47.5279 96.8499 95.1149 
47.8714 96.9916 94.3262 48.3818 97.1974 93.4471 49.038 97.4103 92.5656 
49.4815 97.8758 91.794 49.5827 98.6938 91.1726 49.5389 99.6285 90.6843 
46.5582 96.641 96.7237 46.3414 95.5592 96.2033 46.1692 94.2326 95.7678 
45.9391 92.9151 95.5185 45.4404 92.3935 95.3154 44.8406 93.0464 95.0172 
44.3682 94.2058 94.8209 43.8686 95.2101 94.7899 43.2919 96.0084 94.8025 
50.9012 100.513 106.733 51.6142 100.748 106.297 52.2872 101.038 105.747 
52.8128 101.471 105.181 53.236 101.899 104.57 53.7301 102.022 103.7 
54.2602 101.909 102.729 54.6565 101.852 101.837 54.8603 101.892 100.944 
49.4188 99.8913 106.987 48.5061 99.5439 106.893 47.5052 99.2514 106.801 
46.4695 98.8884 106.673 45.4583 98.4738 106.513 44.432 98.1433 106.306 
43.3906 97.8736 106.027 42.5076 97.6012 105.735 41.8943 97.3194 105.475 
50.9041 100.594 107.506 51.6248 101.037 107.917 52.3551 101.637 108.309 
53.0646 102.331 108.621 53.7808 103.02 108.852 54.4284 103.851 109.019 
54.8232 104.852 108.979 54.8958 105.741 108.667 54.7509 106.403 108.242 
49.9256 100.277 107.729 49.4705 100.429 108.401 48.8947 100.619 109.005 
48.1915 100.827 109.586 47.4153 101.019 110.196 46.6261 101.14 110.766 
45.7203 101.32 111.124 44.7625 101.665 111.161 43.9859 102.041 110.924 
42.9664 104.01 93.8986 42.9677 104.341 94.8059 43.0179 104.633 95.8814 
43.1648 104.837 97.1315 43.3345 105.02 98.451 43.5222 105.267 99.664 
43.7825 105.517 100.806 44.0773 105.725 101.942 44.425 105.861 102.966 
43.553 104.006 92.8753 44.2366 104.347 92.7089 44.9691 104.663 92.7293 
45.7729 104.936 92.9722 46.6548 105.18 93.4496 47.5091 105.369 94.1751 
48.32 105.525 95.0748 49.1411 105.707 95.9958 49.9303 105.899 96.847 
42.4183 103.533 93.8698 41.8371 103.349 94.729 41.192 103.143 95.7068 
40.4694 102.933 96.7087 39.7485 102.684 97.7158 39.044 102.41 98.7592 
38.3533 102.157 99.691 37.7279 101.934 100.536 37.2106 101.728 101.44 
43.3544 103.51 92.2511 43.7784 103.349 91.3031 44.1298 103.235 90.2677 
44.5781 103.034 89.426 45.4266 102.713 89.169 46.497 102.36 89.3655 
47.474 101.952 89.6368 48.2797 101.479 89.867 48.9543 100.978 90.0867 
42.6552 103.202 92.899 42.3406 102.62 92.7144 42.049 101.918 92.6096 
41.7803 101.091 92.6379 41.5891 100.125 92.8082 41.599 99.141 93.1115 
41.8273 98.3471 93.5296 42.1507 97.7428 93.9836 42.4452 97.1912 94.4171 
45.386 106.152 103.295 45.9807 106.395 102.714 46.5912 106.656 102.074 
47.1959 106.868 101.37 47.8366 106.912 100.631 48.5329 106.799 99.9368 
49.2091 106.643 99.2819 49.8094 106.472 98.6648 50.2799 106.266 98.1168 
43.9961 105.609 103.779 43.109 105.222 103.714 42.188 104.785 103.615 
41.226 104.347 103.492 40.261 103.868 103.332 39.3419 103.388 103.16 
38.5105 102.932 102.988 37.834 102.451 102.794 37.3043 101.964 102.577 
45.651 106.054 104.238 46.5611 106.244 104.708 47.5158 106.449 105.219 
48.5384 106.664 105.724 49.6098 106.914 106.216 50.5892 107.169 106.765 
51.5535 107.357 107.251 52.6392 107.395 107.568 53.667 107.231 107.749 
44.7539 105.692 104.528 44.6501 105.403 105.251 44.4866 105.11 106.015 
44.3174 104.771 106.828 44.1385 104.39 107.638 43.9162 104.037 108.432 
43.7307 103.649 109.151 43.6243 103.2 109.739 43.5343 102.758 110.191 
55.0839 102.369 99.6541 55.1061 102.946 99.2655 54.8907 103.66 99.022 
54.4696 104.28 98.8546 53.8887 104.749 98.6926 53.2525 105.167 98.5073 
52.5975 105.514 98.3106 51.9039 105.719 98.0975 51.2324 105.871 97.8607 
55.4579 102.353 100.689 55.8761 102.881 101.534 56.1554 103.47 102.597 
56.4085 104.108 103.629 56.6647 104.894 104.577 56.7374 105.681 105.642 
56.4495 106.229 106.529 55.8845 106.563 107.089 55.2137 106.786 107.51 
54.2803 101.908 99.2522 53.6115 101.776 98.1988 53.0389 101.518 96.9189 
52.518 101.207 95.6094 51.9131 100.942 94.3842 51.3752 100.715 93.1299 
51.1499 100.453 91.8233 50.949 100.296 90.7812 50.3637 100.341 90.3263 
51.1311 106.26 98.7225 51.7379 106.549 99.8285 52.4357 106.955 100.894 
53.0925 107.374 101.985 53.6426 107.672 103.118 54.1515 107.874 104.291 
54.5529 107.958 105.47 54.683 107.748 106.487 54.6125 107.35 107.254 
50.4985 105.654 96.6605 50.3563 105.237 95.5752 50.2188 104.791 94.4045 
50.1167 104.315 93.1643 50.1444 103.852 91.882 50.3396 103.389 90.6943 
50.5404 102.783 89.8889 50.4935 101.984 89.6601 50.0967 101.183 89.8837 
40.258 96.968 105.235 39.0939 96.9543 105.292 38.091 97.1597 105.291 
37.2491 97.4905 105.162 36.5224 97.9557 104.843 36.1426 98.6554 104.322 
36.1073 99.5369 103.678 36.2211 100.344 103.086 36.4925 100.972 102.659 
41.0561 97.0308 106.111 40.8388 97.0828 107.025 40.6865 97.3809 107.781 
40.6694 97.923 108.44 40.807 98.5405 109.128 41.0754 99.2292 109.764 
41.5164 100.039 110.245 42.1216 100.904 110.525 42.7755 101.686 110.611 
40.9748 97.0651 104.148 40.7704 97.0083 103.11 40.7686 96.9369 102.071 
40.9995 96.8678 100.933 41.3789 96.7837 99.6994 41.7815 96.6635 98.4881 
42.1436 96.5332 97.3798 42.4053 96.4799 96.378 42.5975 96.5374 95.5397 
36.9537 101.448 103.328 37.2482 101.316 104.287 37.7142 101.273 105.24 
38.3423 101.347 106.216 39.1484 101.434 107.118 40.0594 101.542 107.93 
40.9426 101.716 108.734 41.7583 101.942 109.516 42.5878 102.145 110.12 
36.7073 101.099 101.516 36.7914 100.586 100.695 37.1455 100.002 99.8858 
37.6713 99.3824 99.0921 38.3672 98.7987 98.3124 39.3974 98.4073 97.6284 
40.4947 98.0912 96.9058 41.3858 97.6777 96.0829 42.098 97.191 95.3604 
53.8131 106.68 108.341 52.9212 106.316 108.809 51.8145 105.861 109.246 
50.5679 105.365 109.733 49.2319 104.852 110.217 47.8623 104.385 110.606 
46.595 103.903 110.836 45.4494 103.341 110.856 44.3907 102.782 110.722 
48.6691 100.051 90.573 47.8265 99.5093 90.8294 46.9565 98.8584 91.1182 
46.0764 98.1839 91.4888 45.2473 97.4708 91.8223 44.3839 96.7691 92.059 
43.6765 96.348 92.485 43.3372 96.2959 93.2307 43.0978 96.4557 94.0767 
47.252 98.9032 98.2062 47.8579 99.4827 98.4796 47.4299 99.5256 99.2981 
48.6556 99.9567 98.8425 48.1896 100.005 99.675 47.6957 100.066 100.513 
49.5399 100.458 99.2458 49.0375 100.52 100.053 48.5308 100.563 100.923 
47.9589 100.623 101.75 50.4786 100.956 99.6499 49.9694 101.033 100.443 
49.4537 101.07 101.329 48.9234 101.04 102.207 48.335 100.989 103.044 
51.5483 101.312 100.066 51.0963 101.373 100.893 50.5716 101.435 101.783 
50.0797 101.351 102.686 49.5722 101.18 103.5 49.0393 100.997 104.273 
52.7844 101.492 100.514 52.4082 101.521 101.356 51.8925 101.628 102.244 
51.3732 101.6 103.156 50.9364 101.327 103.915 50.4272 101.051 104.619 
49.8516 100.803 105.258 53.9749 101.635 100.845 53.6807 101.624 101.696 
53.1916 101.749 102.562 52.6272 101.842 103.502 52.1676 101.611 104.274 
51.7218 101.197 104.891 51.1385 100.879 105.527 50.4964 100.593 106.045 
47.42 97.9266 96.5833 47.7389 97.7464 95.8538 47.9512 98.6835 96.7107 
48.101 97.739 95.0753 48.3517 98.5533 95.941 48.6474 99.3334 96.9392 
48.5124 97.8567 94.2017 48.7751 98.5263 95.0889 49.0712 99.2548 96.1055 
49.4892 99.8951 97.2834 49.1143 97.9715 93.3006 49.2601 98.5662 94.2109 
49.5417 99.2136 95.2401 49.9086 99.8843 96.4323 50.3997 100.439 97.6802 
49.7574 98.1641 92.4068 49.8191 98.7039 93.3426 50.0319 99.2879 94.4134 
50.4049 99.896 95.6299 50.8591 100.437 96.8923 51.346 100.924 98.0669 
50.1528 98.6744 91.5557 50.349 98.9893 92.4124 50.4871 99.51 93.5443 
50.8815 100.004 94.7951 51.3752 100.45 96.096 51.843 100.898 97.3186 
52.371 101.304 98.4984 50.3 99.4825 90.8528 50.7314 99.5335 91.5043 
50.8732 99.8755 92.6315 51.2198 100.254 93.8912 51.7733 100.588 95.1969 
52.2909 100.954 96.4824 52.7764 101.349 97.7525 53.4157 101.603 98.959 
50.8783 101.145 90.0965 50.9646 102.04 90.3686 51.2144 101.205 90.9589 
50.7708 102.815 91.1318 51.1318 102.133 91.6779 51.3372 101.381 92.3698 
50.6442 103.407 92.1997 51.096 102.905 92.6368 51.4437 102.294 93.2276 
51.7741 101.569 93.7918 50.6708 103.954 93.4016 51.2214 103.536 93.7205 
51.6998 103.078 94.1665 52.143 102.472 94.6214 52.4719 101.745 95.0253 
50.7803 104.501 94.6154 51.3655 104.136 94.9018 51.9209 103.713 95.2485 
52.4553 103.233 95.5988 52.9244 102.603 95.8647 53.1373 101.958 96.2743 
50.9205 104.997 95.7757 51.526 104.712 96.044 52.1136 104.332 96.3589 
52.7044 103.893 96.669 53.2632 103.376 96.8957 53.6498 102.769 97.1565 
53.7522 102.177 97.6281 51.092 105.465 96.8571 51.734 105.251 97.0969 
52.3649 104.952 97.3622 52.9857 104.552 97.6283 53.609 104.101 97.8538 
54.1135 103.553 98.0586 54.4021 102.895 98.3377 54.4569 102.289 98.7617 
55.6152 102.872 100.298 55.5253 103.571 100.029 55.9367 103.504 101.265 
55.1823 104.298 99.8898 55.7105 104.232 101.123 56.1038 104.202 102.43 
54.6762 104.879 99.7648 55.2916 104.922 101.013 55.8204 104.958 102.298 
56.3279 105.017 103.428 54.0758 105.354 99.5923 54.7966 105.502 100.81 
55.42 105.647 102.086 56.0491 105.833 103.231 56.5595 105.905 104.361 
53.3875 105.759 99.4024 54.1796 105.99 100.557 54.8702 106.207 101.791 
55.5107 106.432 102.983 56.1214 106.622 104.144 56.462 106.572 105.37 
[...]
POINT_DATA 1002
SCALARS Color_Map_Phi float
LOOKUP_TABLE default
6.28319 3.14159 6.28319 3.14159 4.71239 4.71239 1.5708 1.5708 3.69517 
5.72961 2.58802 0.553574 6.28319 6.28319 6.28319 6.28319 3.14159 3.14159 
3.14159 3.14159 3.14159 6.1053 5.8988 5.67687 5.45995 5.26596 5.10322 
4.97131 4.86569 4.78095 0.177881 0.384387 0.606312 0.823235 1.01722 1.17997 
1.31187 1.4175 1.50223 6.18928 6.10703 6.03531 5.97283 5.91832 5.87061 
5.82869 5.79168 5.75886 0.0939024 0.176153 0.247873 0.310351 0.364864 0.412573 
0.454497 0.491504 0.524326 3.31947 3.52598 3.7479 3.96483 4.15881 4.32156 
4.45346 4.55909 4.64383 2.96371 2.75721 2.53528 2.31836 2.12437 1.96162 
1.82972 1.72409 1.63936 3.2355 3.31775 3.38947 3.45194 3.50646 3.55417 
3.59609 3.6331 3.66592 3.04769 2.96544 2.89372 2.83124 2.77673 2.72902 
2.6871 2.65009 2.61727 6.28319 6.28319 6.28319 6.28319 3.14159 3.14159 
3.14159 3.14159 3.14159 6.1053 5.8988 5.67687 5.45995 5.26596 5.10322 
4.97131 4.86569 4.78095 0.177881 0.384387 0.606312 0.823235 1.01722 1.17997 
1.31187 1.4175 1.50223 6.18928 6.10703 6.03531 5.97283 5.91832 5.87061 
5.82869 5.79168 5.75886 0.0939024 0.176153 0.247873 0.310351 0.364864 0.412573 
0.454497 0.491504 0.524326 3.31947 3.52598 3.7479 3.96483 4.15881 4.32156 
4.45346 4.55909 4.64383 2.96371 2.75721 2.53528 2.31836 2.12437 1.96162 
1.82972 1.72409 1.63936 3.2355 3.31775 3.38947 3.45194 3.50646 3.55417 
3.59609 3.6331 3.66592 3.04769 2.96544 2.89372 2.83124 2.77673 2.72902 
2.6871 2.65009 2.61727 4.71239 4.71239 4.71239 4.71239 4.71239 4.71239 
4.71239 4.71239 4.71239 4.60879 4.49914 4.3857 4.27128 4.15881 4.05096 
3.94976 3.85646 3.77161 4.81599 4.92564 5.03907 5.1535 5.26596 5.37381 
5.47502 5.56831 5.65317 4.60879 4.49914 4.3857 4.27128 4.15881 4.05096 
3.94976 3.85646 3.77161 4.81599 4.92564 5.03907 5.1535 5.26596 5.37381 
5.47502 5.56831 5.65317 1.5708 1.5708 1.5708 1.5708 1.5708 1.5708 
1.5708 1.5708 1.5708 1.6744 1.78405 1.89748 2.01191 2.12437 2.23222 
2.33343 2.42672 2.51157 1.4672 1.35755 1.24411 1.12969 1.01722 0.909371 
0.808166 0.714871 0.63002 1.6744 1.78405 1.89748 2.01191 2.12437 2.23222 
2.33343 2.42672 2.51157 1.4672 1.35755 1.24411 1.12969 1.01722 0.909371 
0.808166 0.714871 0.63002 3.60077 3.49669 3.38395 3.26458 3.14159 3.01861 
2.89924 2.78649 2.68241 5.82401 5.92808 6.04083 6.1602 6.28319 0.122983 
0.242354 0.355101 0.459179 6.05603 5.78856 5.97021 5.51259 5.60297 5.78856 
5.26596 5.26596 5.26596 5.26596 5.06749 5.0121 4.91556 4.71239 4.15881 
4.91556 4.83537 4.71239 4.50922 4.15881 3.63622 4.80045 4.71239 4.58941 
4.41268 4.15881 3.82181 3.45456 4.71239 4.62433 4.50922 4.35729 4.15881 
3.91219 3.63622 3.36875 6.01742 5.94343 5.82633 5.88092 5.76745 5.62798 
5.8278 5.71897 5.58911 5.43724 5.78235 5.67854 5.55757 5.41926 5.26596 
5.74316 5.64441 5.5315 5.40467 5.26596 5.11955 5.70914 5.61528 5.50962 
5.3926 5.26596 5.13292 4.99789 5.67937 5.59016 5.49102 5.38246 5.26596 
5.14407 5.02016 4.89798 5.56831 5.47502 5.47502 5.37381 5.37381 5.37381 
5.26596 5.26596 5.26596 5.26596 5.1535 5.1535 5.1535 5.1535 5.1535 
5.03907 5.03907 5.03907 5.03907 5.03907 5.03907 4.92564 4.92564 4.92564 
4.92564 4.92564 4.92564 4.92564 4.81599 4.81599 4.81599 4.81599 4.81599 
4.81599 4.81599 4.81599 4.60879 4.60879 4.49914 4.60879 4.49914 4.3857 
4.60879 4.49914 4.3857 4.27128 4.60879 4.49914 4.3857 4.27128 4.15881 
4.60879 4.49914 4.3857 4.27128 4.15881 4.05096 4.60879 4.49914 4.3857 
4.27128 4.15881 4.05096 3.94976 4.60879 4.49914 4.3857 4.27128 4.15881 
4.05096 3.94976 3.85646 4.5268 4.40462 4.42689 4.28071 4.29185 4.30523 
4.15881 4.15881 4.15881 4.15881 4.04232 4.03217 4.02011 4.00552 3.98753 
3.93376 3.91515 3.89328 3.86721 3.83566 3.7968 3.83461 3.8095 3.78037 
3.74624 3.70581 3.65733 3.59845 3.7454 3.71564 3.68161 3.64243 3.59698 
3.54386 3.48135 3.40735 3.56428 3.45246 3.52338 3.33203 3.40312 3.47739 
3.20576 3.27463 3.34802 3.42551 3.07742 3.14159 3.21128 3.28647 3.36688 
2.95116 3.00855 3.0719 3.14159 3.21784 3.3006 2.83072 2.88006 2.93517 
2.99672 3.06535 3.14159 3.22575 2.7189 2.7598 2.8058 2.85768 2.9163 
2.98259 3.05743 3.14159 3.56428 3.52338 3.45246 3.47739 3.40312 3.33203 
3.42551 3.34802 3.27463 3.20576 3.36688 3.28647 3.21128 3.14159 3.07742 
3.3006 3.21784 3.14159 3.0719 3.00855 2.95116 3.22575 3.14159 3.06535 
2.99672 2.93517 2.88006 2.83072 3.14159 3.05743 2.98259 2.9163 2.85768 
2.8058 2.7598 2.7189 4.5268 4.42689 4.40462 4.30523 4.29185 4.28071 
4.15881 4.15881 4.15881 4.15881 3.98753 4.00552 4.02011 4.03217 4.04232 
3.7968 3.83566 3.86721 3.89328 3.91515 3.93376 3.59845 3.65733 3.70581 
3.74624 3.78037 3.8095 3.83461 3.40735 3.48135 3.54386 3.59698 3.64243 
3.68161 3.71564 3.7454 4.71239 4.80045 4.62433 4.91556 4.71239 4.50922 
5.06749 4.83537 4.58941 4.35729 5.26596 5.0121 4.71239 4.41268 4.15881 
5.51259 5.26596 4.91556 4.50922 4.15881 3.91219 5.78856 5.60297 5.26596 
4.71239 4.15881 3.82181 3.63622 6.05603 5.97021 5.78856 5.26596 4.15881 
3.63622 3.45456 3.36875 0.227158 0.494626 0.312971 0.770593 0.680215 0.494626 
1.01722 1.01722 1.01722 1.01722 1.2157 1.27109 1.36763 1.5708 2.12437 
1.36763 1.44781 1.5708 1.77397 2.12437 2.64697 1.48273 1.5708 1.69378 
1.8705 2.12437 2.46138 2.82862 1.5708 1.65886 1.77397 1.9259 2.12437 
2.371 2.64697 2.91443 1.75639 1.87857 1.8563 2.00248 1.99133 1.97796 
2.12437 2.12437 2.12437 2.12437 2.24087 2.25101 2.26308 2.27767 2.29565 
2.34943 2.36803 2.38991 2.41597 2.44752 2.48639 2.44857 2.47368 2.50281 
2.53694 2.57738 2.62586 2.68474 2.53778 2.56754 2.60157 2.64076 2.68621 
2.73933 2.80184 2.87583 1.6744 1.6744 1.78405 1.6744 1.78405 1.89748 
1.6744 1.78405 1.89748 2.01191 1.6744 1.78405 1.89748 2.01191 2.12437 
1.6744 1.78405 1.89748 2.01191 2.12437 2.23222 1.6744 1.78405 1.89748 
2.01191 2.12437 2.23222 2.33343 1.6744 1.78405 1.89748 2.01191 2.12437 
2.23222 2.33343 2.42672 1.4672 1.35755 1.4672 1.24411 1.35755 1.4672 
1.12969 1.24411 1.35755 1.4672 1.01722 1.12969 1.24411 1.35755 1.4672 
0.909371 1.01722 1.12969 1.24411 1.35755 1.4672 0.808166 0.909371 1.01722 
1.12969 1.24411 1.35755 1.4672 0.714871 0.808166 0.909371 1.01722 1.12969 
1.24411 1.35755 1.4672 0.603812 0.57405 0.693022 0.540021 0.667908 0.792164 
0.500837 0.638778 0.773562 0.900726 0.455383 0.604649 0.751687 0.890581 1.01722 
0.402264 0.564217 0.725619 0.878514 1.01722 1.13912 0.339753 0.515737 0.694072 
0.863926 1.01722 1.15026 1.26302 0.265762 0.456853 0.655207 0.845941 1.01722 
1.16363 1.28529 1.38521 0.227158 0.312971 0.494626 0.494626 0.680215 0.770593 
1.01722 1.01722 1.01722 1.01722 2.12437 1.5708 1.36763 1.27109 1.2157 
2.64697 2.12437 1.77397 1.5708 1.44781 1.36763 2.82862 2.46138 2.12437 
1.8705 1.69378 1.5708 1.48273 2.91443 2.64697 2.371 2.12437 1.9259 
1.77397 1.65886 1.5708 1.75639 1.8563 1.87857 1.97796 1.99133 2.00248 
2.12437 2.12437 2.12437 2.12437 2.29565 2.27767 2.26308 2.25101 2.24087 
2.48639 2.44752 2.41597 2.38991 2.36803 2.34943 2.68474 2.62586 2.57738 
2.53694 2.50281 2.47368 2.44857 2.87583 2.80184 2.73933 2.68621 2.64076 
2.60157 2.56754 2.53778 5.86049 5.90139 5.97231 5.94739 6.02165 6.09275 
5.99927 6.07676 6.15015 6.21902 6.0579 6.13831 6.2135 0 0.0641696 
6.12418 6.20694 6.28319 0.069689 0.13304 0.190437 6.19903 0 0.0762451 
0.144876 0.206423 0.261531 0.310872 0 0.0841597 0.159004 0.225289 0.283913 
0.335793 0.381792 0.422692 5.86049 5.97231 5.90139 6.09275 6.02165 5.94739 
6.21902 6.15015 6.07676 5.99927 0.0641696 0 6.2135 6.13831 6.0579 
0.190437 0.13304 0.069689 6.28319 6.20694 6.12418 0.310872 0.261531 0.206423 
0.144876 0.0762451 6.28319 6.19903 0.422692 0.381792 0.335793 0.283913 0.225289 
0.159004 0.0841597 0 5.67937 5.70914 5.59016 5.74316 5.61528 5.49102 
5.78235 5.64441 5.50962 5.38246 5.8278 5.67854 5.5315 5.3926 5.26596 
5.88092 5.71897 5.55757 5.40467 5.26596 5.14407 5.94343 5.76745 5.58911 
5.41926 5.26596 5.13292 5.02016 6.01742 5.82633 5.62798 5.43724 5.26596 
5.11955 4.99789 4.89798 1.38521 1.28529 1.26302 1.16363 1.15026 1.13912 
1.01722 1.01722 1.01722 1.01722 0.845941 0.863926 0.878514 0.890581 0.900726 
0.655207 0.694072 0.725619 0.751687 0.773562 0.792164 0.456853 0.515737 0.564217 
0.604649 0.638778 0.667908 0.693022 0.265762 0.339753 0.402264 0.455383 0.500837 
0.540021 0.57405 0.603812 
