# vtk DataFile Version 4.1
vtk output
ASCII
DATASET POLYDATA
POINTS 1002 float
46.7443 96.3908 97.0858 51.351 99.4266 107.371 42.1928 103.845 93.739 
45.1067 106.403 104.658 55.4347 101.076 100.179 51.7 106.29 97.6656 
39.5108 95.932 105.202 36.1416 101.726 103.324 56.8065 103.861 108.317 
48.8014 100.289 90.5358 44.252 102.106 111.174 39.4524 97.1343 94.5017 
46.6729 97.3608 97.8701 46.6941 98.2842 98.7713 46.8384 99.1294 99.7999 
47.1079 99.833 100.997 47.6424 100.236 102.324 48.4494 100.328 103.631 
49.409 100.288 104.872 50.2688 100.163 105.923 50.9208 99.872 106.752 
47.0518 97.075 97.0562 47.4475 97.8956 97.1175 48.0026 98.7667 97.2843 
48.7394 99.4988 97.572 49.6583 100.153 97.9886 50.7036 100.744 98.5039 
52.0275 100.954 99.1041 53.3691 100.986 99.6022 54.5525 100.924 99.925 
46.341 96.5144 97.6456 45.8378 96.6626 98.3462 45.1699 96.8801 99.1619 
44.3211 97.1354 100.037 43.3011 97.3108 100.975 42.2427 97.2641 102 
41.4147 96.9006 103.038 40.7808 96.3871 103.976 40.1754 95.9965 104.71 
47.0227 95.679 96.3177 47.2723 94.9174 95.587 47.5182 94.5735 94.8766 
47.8732 94.8629 94.1449 48.3214 95.5227 93.3983 48.711 96.3255 92.6449 
48.8497 97.2883 91.9725 48.8358 98.3776 91.4251 48.8113 99.4051 90.9555 
46.621 95.3467 96.6884 46.3323 94.2872 96.3571 45.7447 93.7414 96.0198 
45.0383 94.0498 95.6152 44.4132 94.9746 95.2372 43.6632 95.9547 95.0196 
42.5864 96.6405 94.8568 41.4013 96.9715 94.7147 40.3308 97.0446 94.5606 
52.1143 99.4756 106.901 52.8272 99.4251 106.276 53.5508 99.3565 105.576 
54.2734 99.3782 104.876 54.8429 99.475 104.122 55.2247 99.6415 103.282 
55.4942 99.921 102.454 55.6483 100.274 101.705 55.6036 100.684 100.935 
50.26 99.5965 107.367 48.8513 99.743 107.172 47.1633 99.9416 106.841 
45.4262 100.019 106.47 44.0525 99.6058 106.129 43.1262 98.7057 105.882 
42.3836 97.6754 105.723 41.4844 96.8935 105.625 40.4358 96.3835 105.462 
52.2056 98.9874 107.65 53.1585 98.7332 107.955 54.1808 98.94 108.282 
55.1359 99.4924 108.589 55.9638 100.095 108.882 56.6721 100.741 109.162 
57.1744 101.551 109.283 57.313 102.468 109.119 57.1422 103.262 108.755 
50.9951 99.0379 107.933 50.5229 98.8167 108.542 49.9809 98.8202 109.193 
49.4005 99.291 109.905 48.7544 99.8462 110.566 48.0238 100.321 111.111 
47.1545 100.743 111.49 46.1154 101.176 111.631 45.0883 101.667 111.44 
42.3286 104.159 94.6483 42.4847 104.541 95.6598 42.5847 105.011 96.7028 
42.707 105.48 97.8254 42.9528 105.846 99.0902 43.2408 106.143 100.39 
43.5462 106.399 101.616 43.9767 106.528 102.759 44.5253 106.515 103.787 
42.8884 104.165 93.5968 43.6733 104.525 93.5923 44.4784 104.953 93.667 
45.3668 105.411 93.8358 46.3874 105.795 94.1856 47.5035 106.033 94.786 
48.6424 106.154 95.5248 49.775 106.248 96.2683 50.8083 106.308 96.986 
41.5998 103.705 94.5052 40.9994 103.528 95.3943 40.3457 103.31 96.3455 
39.6017 103.077 97.3236 38.8658 102.851 98.3708 38.1796 102.65 99.4562 
37.5204 102.441 100.517 36.9437 102.215 101.517 36.4935 101.976 102.445 
42.5302 103.728 92.7676 42.8975 103.591 91.7212 43.291 103.477 90.6221 
43.779 103.334 89.6383 44.6404 103.104 89.0804 45.7677 102.67 89.0998 
46.811 102.081 89.4297 47.6181 101.474 89.8124 48.2447 100.884 90.2117 
41.7116 103.433 93.3499 41.2298 102.894 93.0111 40.7034 102.263 92.7476 
40.1136 101.624 92.6065 39.5653 100.868 92.5992 39.1735 99.9041 92.7367 
38.977 98.867 93.0423 38.9611 98.0059 93.4665 39.1428 97.4292 93.9621 
45.797 106.563 104.126 46.5313 106.735 103.478 47.2791 106.96 102.824 
48.0502 107.099 102.13 48.8617 107.118 101.268 49.6943 107.12 100.319 
50.4122 107.078 99.4824 50.9588 106.9 98.834 51.3813 106.605 98.2327 
44.0743 106.264 104.656 43.0156 105.966 104.611 41.9666 105.562 104.574 
40.885 105.132 104.515 39.7613 104.653 104.393 38.7175 104.139 104.275 
37.8801 103.568 104.083 37.1578 102.959 103.843 36.6011 102.324 103.584 
46.131 106.35 105.158 47.2578 106.302 105.693 48.5158 106.278 106.272 
49.9107 106.151 106.818 51.3395 105.842 107.224 52.6967 105.474 107.537 
53.936 105.088 107.833 55.0373 104.67 108.083 55.9986 104.248 108.233 
45.0311 106.189 105.439 44.9297 105.899 106.235 44.816 105.518 107.088 
44.677 105.123 107.962 44.5295 104.73 108.766 44.4125 104.273 109.49 
44.3776 103.744 110.122 44.3296 103.215 110.596 44.2653 102.672 110.94 
55.7071 101.51 99.8378 55.8214 102.088 99.4665 55.807 102.784 99.0451 
55.6813 103.61 98.6244 55.3946 104.442 98.2851 54.8263 105.085 98.0765 
54 105.476 97.9677 53.1513 105.767 97.8553 52.3926 106.047 97.7517 
56.2916 101.107 100.888 57.138 101.217 101.626 57.9883 101.333 102.304 
58.7198 101.524 103.03 59.116 101.973 104.091 59.1058 102.528 105.367 
58.7592 102.967 106.411 58.211 103.345 107.172 57.5065 103.622 107.78 
54.718 101.278 99.2205 53.8797 101.389 98.1141 53.1219 101.246 96.8029 
52.5698 100.906 95.33 52.0657 100.574 93.9726 51.5827 100.288 92.7973 
51.126 100.046 91.7415 50.4859 100.003 91.0137 49.6657 100.122 90.6703 
52.3802 106.431 98.6918 53.1365 106.506 99.7847 53.9801 106.458 100.952 
54.8128 106.247 102.216 55.5201 105.874 103.507 56.0525 105.394 104.654 
56.4642 104.893 105.655 56.7282 104.516 106.594 56.8155 104.212 107.502 
51.4458 106.012 96.6801 51.1933 105.705 95.6004 50.9556 105.299 94.4537 
50.6626 104.765 93.3132 50.361 104.197 92.2309 50.2045 103.583 91.2456 
50.0875 102.805 90.4887 49.8287 101.891 90.0917 49.3363 101.039 90.2221 
38.5752 95.7973 105.229 37.625 95.8006 105.214 36.7055 96.0718 105.248 
35.8733 96.5906 105.294 35.2579 97.4334 105.225 34.9834 98.5369 105.003 
35.0244 99.6472 104.633 35.2881 100.551 104.188 35.7051 101.188 103.732 
39.4113 96.3729 105.788 39.422 96.9224 106.37 39.5536 97.5549 107.049 
39.8477 98.1943 107.829 40.3251 98.8124 108.585 41.0371 99.4522 109.311 
41.8885 100.118 110.037 42.7474 100.842 110.649 43.5457 101.502 111.037 
39.1125 95.4504 104.548 38.7394 95.0196 103.78 38.3633 95.0911 102.954 
38.1057 95.65 101.955 38.0881 96.3171 100.61 38.2796 96.5423 99.0388 
38.531 96.564 97.6689 38.8505 96.6833 96.4778 39.1907 96.9534 95.4409 
36.1454 101.811 104.401 36.3313 101.885 105.577 36.6781 101.953 106.746 
37.2423 101.947 107.715 38.1889 101.871 108.387 39.3962 101.863 108.936 
40.6194 101.994 109.574 41.8326 102.116 110.229 43.0564 102.145 110.759 
35.9587 101.291 102.492 35.8127 100.809 101.529 35.7341 100.252 100.487 
35.8678 99.6413 99.4848 36.2858 98.9676 98.4958 36.7145 98.2354 97.421 
37.064 97.5818 96.4088 37.6162 97.1671 95.6207 38.4882 97.0844 95.0276 
56.2019 103.675 108.956 55.3245 103.479 109.464 54.1238 103.326 109.874 
52.7359 103.214 110.331 51.4111 103.093 110.88 50.0456 103.015 111.322 
48.4907 102.934 111.526 46.8991 102.712 111.522 45.4921 102.388 111.378 
47.8964 99.9171 90.7147 46.9567 99.457 90.7829 46.0029 98.9632 90.8854 
44.9706 98.5533 91.1762 43.8036 98.1549 91.4269 42.5819 97.676 91.5503 
41.5523 97.2909 91.8886 40.7991 97.1645 92.6358 40.1379 97.1707 93.5768 
47.073 98.0897 97.912 47.5969 98.9303 98.0497 47.2191 99.0508 98.8996 
48.2375 99.7965 98.3116 47.8447 99.931 99.1745 47.4634 99.9476 100.079 
49.1371 100.436 98.7394 48.6888 100.667 99.6113 48.284 100.689 100.54 
47.9788 100.477 101.471 50.3368 100.85 99.3028 49.9618 100.948 100.182 
49.5292 101.055 101.115 49.1785 100.883 102.043 48.8261 100.612 102.902 
51.7432 101.007 99.9054 51.4657 100.925 100.776 51.1697 100.863 101.679 
50.805 100.837 102.607 50.3725 100.681 103.471 49.9259 100.471 104.242 
53.2249 100.85 100.406 52.989 100.713 101.268 52.7427 100.542 102.135 
52.4913 100.472 103.035 52.0595 100.435 103.887 51.4777 100.366 104.67 
50.8948 100.272 105.358 54.5636 100.691 100.742 54.4212 100.389 101.549 
54.1752 100.168 102.372 53.9274 100.029 103.247 53.585 99.9824 104.118 
52.9613 99.9425 104.863 52.2707 99.9518 105.575 51.6133 99.9454 106.224 
47.3184 96.5099 96.2817 47.5499 96.12 95.5248 47.7317 97.5679 96.3616 
47.8414 96.12 94.763 48.0515 97.3744 95.6033 48.4128 98.45 96.5647 
48.3487 96.3551 93.9823 48.4492 97.3916 94.8251 48.8727 98.291 95.8325 
49.2594 99.2079 96.8701 49.0155 96.6588 93.1834 49.0906 97.4394 94.0238 
49.3896 98.275 95.0567 49.814 99.0692 96.121 50.1694 99.9585 97.253 
49.5391 97.2003 92.3599 49.8051 97.6463 93.141 49.9788 98.4028 94.2023 
50.3352 99.1024 95.3233 50.7265 99.8287 96.4879 51.2136 100.585 97.7842 
49.7302 98.1056 91.6474 50.3195 98.1878 92.2552 50.5687 98.7119 93.2799 
50.8542 99.3274 94.4356 51.2668 99.8751 95.6437 51.7499 100.467 97.0059 
52.4353 100.95 98.3758 49.7216 99.157 91.1004 50.5158 99.0379 91.5178 
50.9844 99.2662 92.4076 51.3251 99.698 93.5491 51.7744 100.105 94.7564 
52.262 100.555 96.1512 52.8902 100.953 97.5805 53.7124 101.063 98.8529 
50.2003 100.965 90.5095 50.6274 101.946 90.7168 50.9705 100.957 91.1366 
50.8792 102.938 91.3735 51.3454 102.041 91.6707 51.5764 101.087 92.1416 
51.114 103.736 92.2449 51.7235 103.048 92.4202 52.0446 102.16 92.7843 
52.1343 101.268 93.3213 51.4179 104.381 93.2558 52.1378 103.863 93.3133 
52.5469 103.132 93.6038 52.6584 102.273 94.1262 52.6904 101.489 94.6998 
51.6895 104.948 94.4099 52.4802 104.521 94.4052 53.0604 103.941 94.6088 
53.2139 103.175 95.1242 53.2387 102.381 95.7153 53.2667 101.722 96.2595 
51.9047 105.413 95.6103 52.6965 105.048 95.6349 53.464 104.595 95.741 
53.8549 103.938 96.1326 53.9276 103.139 96.6976 54.0026 102.41 97.2047 
54.042 101.825 97.655 52.1414 105.753 96.7336 52.9048 105.446 96.8144 
53.7565 105.1 96.8931 54.4413 104.578 97.0831 54.7372 103.824 97.4977 
54.8614 103.01 97.9669 54.9455 102.304 98.4021 54.9282 101.72 98.8106 
56.5324 101.693 100.601 56.6307 102.393 100.232 57.3549 101.935 101.368 
56.5568 103.23 99.8212 57.3946 102.784 101.03 58.1678 102.224 102.042 
56.2905 104.158 99.4813 57.1858 103.75 100.721 58.1039 103.287 101.787 
58.7976 102.694 102.841 55.7982 104.981 99.2499 56.7464 104.687 100.494 
57.7315 104.324 101.661 58.5643 103.903 102.782 59.0534 103.278 104.031 
55.0168 105.525 99.0953 56.0374 105.397 100.311 57.0511 105.11 101.557 
57.9611 104.751 102.77 58.5855 104.286 104.024 58.8276 103.663 105.288 
[...]
POINT_DATA 1002
SCALARS Color_Map_Phi float
LOOKUP_TABLE default
6.28319 3.14159 6.28319 3.14159 4.71239 4.71239 1.5708 1.5708 3.69517 
5.72961 2.58802 0.553574 6.28319 6.28319 6.28319 6.28319 3.14159 3.14159 
3.14159 3.14159 3.14159 6.1053 5.8988 5.67687 5.45995 5.26596 5.10322 
4.97131 4.86569 4.78095 0.177881 0.384387 0.606312 0.823235 1.01722 1.17997 
1.31187 1.4175 1.50223 6.18928 6.10703 6.03531 5.97283 5.91832 5.87061 
5.82869 5.79168 5.75886 0.0939024 0.176153 0.247873 0.310351 0.364864 0.412573 
0.454497 0.491504 0.524326 3.31947 3.52598 3.7479 3.96483 4.15881 4.32156 
4.45346 4.55909 4.64383 2.96371 2.75721 2.53528 2.31836 2.12437 1.96162 
1.82972 1.72409 1.63936 3.2355 3.31775 3.38947 3.45194 3.50646 3.55417 
3.59609 3.6331 3.66592 3.04769 2.96544 2.89372 2.83124 2.77673 2.72902 
2.6871 2.65009 2.61727 6.28319 6.28319 6.28319 6.28319 3.14159 3.14159 
3.14159 3.14159 3.14159 6.1053 5.8988 5.67687 5.45995 5.26596 5.10322 
4.97131 4.86569 4.78095 0.177881 0.384387 0.606312 0.823235 1.01722 1.17997 
1.31187 1.4175 1.50223 6.18928 6.10703 6.03531 5.97283 5.91832 5.87061 
5.82869 5.79168 5.75886 0.0939024 0.176153 0.247873 0.310351 0.364864 0.412573 
0.454497 0.491504 0.524326 3.31947 3.52598 3.7479 3.96483 4.15881 4.32156 
4.45346 4.55909 4.64383 2.96371 2.75721 2.53528 2.31836 2.12437 1.96162 
1.82972 1.72409 1.63936 3.2355 3.31775 3.38947 3.45194 3.50646 3.55417 
3.59609 3.6331 3.66592 3.04769 2.96544 2.89372 2.83124 2.77673 2.72902 
2.6871 2.65009 2.61727 4.71239 4.71239 4.71239 4.71239 4.71239 4.71239 
4.71239 4.71239 4.71239 4.60879 4.49914 4.3857 4.27128 4.15881 4.05096 
3.94976 3.85646 3.77161 4.81599 4.92564 5.03907 5.1535 5.26596 5.37381 
5.47502 5.56831 5.65317 4.60879 4.49914 4.3857 4.27128 4.15881 4.05096 
3.94976 3.85646 3.77161 4.81599 4.92564 5.03907 5.1535 5.26596 5.37381 
5.47502 5.56831 5.65317 1.5708 1.5708 1.5708 1.5708 1.5708 1.5708 
1.5708 1.5708 1.5708 1.6744 1.78405 1.89748 2.01191 2.12437 2.23222 
2.33343 2.42672 2.51157 1.4672 1.35755 1.24411 1.12969 1.01722 0.909371 
0.808166 0.714871 0.63002 1.6744 1.78405 1.89748 2.01191 2.12437 2.23222 
2.33343 2.42672 2.51157 1.4672 1.35755 1.24411 1.12969 1.01722 0.909371 
0.808166 0.714871 0.63002 3.60077 3.49669 3.38395 3.26458 3.14159 3.01861 
2.89924 2.78649 2.68241 5.82401 5.92808 6.04083 6.1602 6.28319 0.122983 
0.242354 0.355101 0.459179 6.05603 5.78856 5.97021 5.51259 5.60297 5.78856 
5.26596 5.26596 5.26596 5.26596 5.06749 5.0121 4.91556 4.71239 4.15881 
4.91556 4.83537 4.71239 4.50922 4.15881 3.63622 4.80045 4.71239 4.58941 
4.41268 4.15881 3.82181 3.45456 4.71239 4.62433 4.50922 4.35729 4.15881 
3.91219 3.63622 3.36875 6.01742 5.94343 5.82633 5.88092 5.76745 5.62798 
5.8278 5.71897 5.58911 5.43724 5.78235 5.67854 5.55757 5.41926 5.26596 
5.74316 5.64441 5.5315 5.40467 5.26596 5.11955 5.70914 5.61528 5.50962 
5.3926 5.26596 5.13292 4.99789 5.67937 5.59016 5.49102 5.38246 5.26596 
5.14407 5.02016 4.89798 5.56831 5.47502 5.47502 5.37381 5.37381 5.37381 
5.26596 5.26596 5.26596 5.26596 5.1535 5.1535 5.1535 5.1535 5.1535 
5.03907 5.03907 5.03907 5.03907 5.03907 5.03907 4.92564 4.92564 4.92564 
4.92564 4.92564 4.92564 4.92564 4.81599 4.81599 4.81599 4.81599 4.81599 
4.81599 4.81599 4.81599 4.60879 4.60879 4.49914 4.60879 4.49914 4.3857 
4.60879 4.49914 4.3857 4.27128 4.60879 4.49914 4.3857 4.27128 4.15881 
4.60879 4.49914 4.3857 4.27128 4.15881 4.05096 4.60879 4.49914 4.3857 
4.27128 4.15881 4.05096 3.94976 4.60879 4.49914 4.3857 4.27128 4.15881 
4.05096 3.94976 3.85646 4.5268 4.40462 4.42689 4.28071 4.29185 4.30523 
4.15881 4.15881 4.15881 4.15881 4.04232 4.03217 4.02011 4.00552 3.98753 
3.93376 3.91515 3.89328 3.86721 3.83566 3.7968 3.83461 3.8095 3.78037 
3.74624 3.70581 3.65733 3.59845 3.7454 3.71564 3.68161 3.64243 3.59698 
3.54386 3.48135 3.40735 3.56428 3.45246 3.52338 3.33203 3.40312 3.47739 
3.20576 3.27463 3.34802 3.42551 3.07742 3.14159 3.21128 3.28647 3.36688 
2.95116 3.00855 3.0719 3.14159 3.21784 3.3006 2.83072 2.88006 2.93517 
2.99672 3.06535 3.14159 3.22575 2.7189 2.7598 2.8058 2.85768 2.9163 
2.98259 3.05743 3.14159 3.56428 3.52338 3.45246 3.47739 3.40312 3.33203 
3.42551 3.34802 3.27463 3.20576 3.36688 3.28647 3.21128 3.14159 3.07742 
3.3006 3.21784 3.14159 3.0719 3.00855 2.95116 3.22575 3.14159 3.06535 
2.99672 2.93517 2.88006 2.83072 3.14159 3.05743 2.98259 2.9163 2.85768 
2.8058 2.7598 2.7189 4.5268 4.42689 4.40462 4.30523 4.29185 4.28071 
4.15881 4.15881 4.15881 4.15881 3.98753 4.00552 4.02011 4.03217 4.04232 
3.7968 3.83566 3.86721 3.89328 3.91515 3.93376 3.59845 3.65733 3.70581 
3.74624 3.78037 3.8095 3.83461 3.40735 3.48135 3.54386 3.59698 3.64243 
3.68161 3.71564 3.7454 4.71239 4.80045 4.62433 4.91556 4.71239 4.50922 
5.06749 4.83537 4.58941 4.35729 5.26596 5.0121 4.71239 4.41268 4.15881 
5.51259 5.26596 4.91556 4.50922 4.15881 3.91219 5.78856 5.60297 5.26596 
4.71239 4.15881 3.82181 3.63622 6.05603 5.97021 5.78856 5.26596 4.15881 
3.63622 3.45456 3.36875 0.227158 0.494626 0.312971 0.770593 0.680215 0.494626 
1.01722 1.01722 1.01722 1.01722 1.2157 1.27109 1.36763 1.5708 2.12437 
1.36763 1.44781 1.5708 1.77397 2.12437 2.64697 1.48273 1.5708 1.69378 
1.8705 2.12437 2.46138 2.82862 1.5708 1.65886 1.77397 1.9259 2.12437 
2.371 2.64697 2.91443 1.75639 1.87857 1.8563 2.00248 1.99133 1.97796 
2.12437 2.12437 2.12437 2.12437 2.24087 2.25101 2.26308 2.27767 2.29565 
2.34943 2.36803 2.38991 2.41597 2.44752 2.48639 2.44857 2.47368 2.50281 
2.53694 2.57738 2.62586 2.68474 2.53778 2.56754 2.60157 2.64076 2.68621 
2.73933 2.80184 2.87583 1.6744 1.6744 1.78405 1.6744 1.78405 1.89748 
1.6744 1.78405 1.89748 2.01191 1.6744 1.78405 1.89748 2.01191 2.12437 
1.6744 1.78405 1.89748 2.01191 2.12437 2.23222 1.6744 1.78405 1.89748 
2.01191 2.12437 2.23222 2.33343 1.6744 1.78405 1.89748 2.01191 2.12437 
2.23222 2.33343 2.42672 1.4672 1.35755 1.4672 1.24411 1.35755 1.4672 
1.12969 1.24411 1.35755 1.4672 1.01722 1.12969 1.24411 1.35755 1.4672 
0.909371 1.01722 1.12969 1.24411 1.35755 1.4672 0.808166 0.909371 1.01722 
1.12969 1.24411 1.35755 1.4672 0.714871 0.808166 0.909371 1.01722 1.12969 
1.24411 1.35755 1.4672 0.603812 0.57405 0.693022 0.540021 0.667908 0.792164 
0.500837 0.638778 0.773562 0.900726 0.455383 0.604649 0.751687 0.890581 1.01722 
0.402264 0.564217 0.725619 0.878514 1.01722 1.13912 0.339753 0.515737 0.694072 
0.863926 1.01722 1.15026 1.26302 0.265762 0.456853 0.655207 0.845941 1.01722 
1.16363 1.28529 1.38521 0.227158 0.312971 0.494626 0.494626 0.680215 0.770593 
1.01722 1.01722 1.01722 1.01722 2.12437 1.5708 1.36763 1.27109 1.2157 
2.64697 2.12437 1.77397 1.5708 1.44781 1.36763 2.82862 2.46138 2.12437 
1.8705 1.69378 1.5708 1.48273 2.91443 2.64697 2.371 2.12437 1.9259 
1.77397 1.65886 1.5708 1.75639 1.8563 1.87857 1.97796 1.99133 2.00248 
2.12437 2.12437 2.12437 2.12437 2.29565 2.27767 2.26308 2.25101 2.24087 
2.48639 2.44752 2.41597 2.38991 2.36803 2.34943 2.68474 2.62586 2.57738 
2.53694 2.50281 2.47368 2.44857 2.87583 2.80184 2.73933 2.68621 2.64076 
2.60157 2.56754 2.53778 5.86049 5.90139 5.97231 5.94739 6.02165 6.09275 
5.99927 6.07676 6.15015 6.21902 6.0579 6.13831 6.2135 0 0.0641696 
6.12418 6.20694 6.28319 0.069689 0.13304 0.190437 6.19903 0 0.0762451 
0.144876 0.206423 0.261531 0.310872 0 0.0841597 0.159004 0.225289 0.283913 
0.335793 0.381792 0.422692 5.86049 5.97231 5.90139 6.09275 6.02165 5.94739 
6.21902 6.15015 6.07676 5.99927 0.0641696 0 6.2135 6.13831 6.0579 
0.190437 0.13304 0.069689 6.28319 6.20694 6.12418 0.310872 0.261531 0.206423 
0.144876 0.0762451 6.28319 6.19903 0.422692 0.381792 0.335793 0.283913 0.225289 
0.159004 0.0841597 0 5.67937 5.70914 5.59016 5.74316 5.61528 5.49102 
5.78235 5.64441 5.50962 5.38246 5.8278 5.67854 5.5315 5.3926 5.26596 
5.88092 5.71897 5.55757 5.40467 5.26596 5.14407 5.94343 5.76745 5.58911 
5.41926 5.26596 5.13292 5.02016 6.01742 5.82633 5.62798 5.43724 5.26596 
5.11955 4.99789 4.89798 1.38521 1.28529 1.26302 1.16363 1.15026 1.13912 
1.01722 1.01722 1.01722 1.01722 0.845941 0.863926 0.878514 0.890581 0.900726 
0.655207 0.694072 0.725619 0.751687 0.773562 0.792164 0.456853 0.515737 0.564217 
0.604649 0.638778 0.667908 0.693022 0.265762 0.339753 0.402264 0.455383 0.500837 
0.540021 0.57405 0.603812 
