# vtk DataFile Version 4.1
vtk output
ASCII
DATASET POLYDATA
POINTS 1002 float
46.5372 96.1094 95.5637 48.2956 100.75 104.785 43.5145 103.113 94.7125 
45.206 106.671 103.433 50.5149 101.871 99.1541 49.1026 105.576 97.4087 
41.879 97.4483 103.224 39.463 102.324 101.782 52.7565 105.273 105.843 
47.6422 100.474 90.4351 44.2858 103.177 108.578 42.3888 97.5998 94.3377 
46.6062 96.6627 96.2469 46.7144 97.2524 97.1261 46.8559 97.8168 98.1367 
46.9782 98.3381 99.1909 47.1135 98.8349 100.302 47.3025 99.31 101.393 
47.4577 99.8272 102.316 47.6423 100.296 103.141 47.9422 100.586 103.979 
46.9164 96.4878 95.6092 47.3422 96.9764 95.7355 47.7928 97.5126 95.9477 
48.2303 98.1085 96.2186 48.6135 98.8171 96.5536 48.9824 99.5411 97.0342 
49.394 100.208 97.633 49.8052 100.842 98.2038 50.1757 101.403 98.6965 
46.2037 96.1692 95.9679 45.8384 96.3202 96.5092 45.4153 96.5709 97.1816 
44.9186 96.8815 97.9558 44.3779 97.1327 98.8415 43.8392 97.2758 99.816 
43.3229 97.3575 100.794 42.8083 97.4291 101.701 42.3151 97.4614 102.516 
46.72 95.7874 94.9841 46.9624 95.5179 94.3869 47.3119 95.4211 93.7649 
47.6673 95.6403 93.1499 47.7985 96.2824 92.5542 47.7288 97.2305 92.0293 
47.6745 98.2012 91.6046 47.6642 99.0547 91.2023 47.6457 99.806 90.7985 
46.2875 95.5428 95.2074 46.0229 94.8182 94.9234 45.6726 94.0929 94.69 
45.2043 93.9222 94.415 44.689 94.5234 94.1046 44.1611 95.3744 93.8941 
43.6354 96.0966 93.8378 43.1742 96.7108 93.9112 42.77 97.2117 94.0972 
48.6976 100.961 104.411 49.1073 101.224 104.094 49.4875 101.463 103.761 
49.8574 101.556 103.243 50.2041 101.556 102.601 50.4699 101.585 101.975 
50.678 101.579 101.252 50.7809 101.563 100.451 50.6979 101.674 99.7521 
47.6771 100.472 104.689 47.0317 100.164 104.561 46.3861 99.8001 104.427 
45.7142 99.4172 104.291 44.9842 99.0272 104.117 44.2512 98.643 103.924 
43.5947 98.3264 103.745 42.9968 98.0343 103.565 42.413 97.7108 103.389 
48.9524 101.027 105.305 49.8373 101.271 105.766 50.9176 101.434 106.092 
51.8726 101.666 106.323 52.5419 102.122 106.557 52.9928 102.777 106.729 
53.1558 103.523 106.676 53.0609 104.228 106.423 52.9089 104.805 106.121 
48.2516 100.763 105.501 48.1218 100.873 106.157 47.874 101.068 106.689 
47.4969 101.362 107.137 47.0149 101.737 107.533 46.5135 102.029 107.926 
45.9944 102.249 108.326 45.3955 102.528 108.585 44.7904 102.843 108.635 
43.5718 103.454 95.4675 43.6353 103.845 96.2893 43.6998 104.316 97.142 
43.7988 104.811 98.0429 43.8914 105.325 98.9354 43.9745 105.865 99.7505 
44.2094 106.242 100.65 44.5696 106.413 101.683 44.9038 106.541 102.646 
43.9295 103.385 94.6441 44.3574 103.687 94.6057 44.8108 104.045 94.6254 
45.3385 104.428 94.7365 45.9239 104.75 94.9498 46.5478 104.978 95.3239 
47.2099 105.135 95.8603 47.8755 105.271 96.4199 48.5141 105.426 96.9273 
43.1342 103.056 95.2943 42.7409 102.999 95.998 42.3391 102.922 96.7663 
41.8802 102.831 97.5415 41.382 102.74 98.3541 40.9095 102.656 99.1509 
40.4192 102.593 99.8511 39.9441 102.543 100.509 39.6169 102.463 101.159 
43.7143 102.931 93.9179 43.9367 102.725 93.0333 44.2239 102.513 92.0995 
44.4977 102.35 91.1699 44.7458 102.224 90.2681 45.2593 102.028 89.6447 
46.0537 101.704 89.5915 46.7449 101.313 89.9038 47.2281 100.902 90.2124 
43.2613 102.699 94.3546 43.0336 102.217 94.0582 42.7596 101.71 93.7933 
42.4653 101.138 93.5807 42.2503 100.508 93.507 42.0601 99.8615 93.5123 
41.89 99.1484 93.5579 41.9019 98.4428 93.7533 42.1187 97.9284 94.0653 
45.539 106.865 102.952 45.8703 107.067 102.33 46.2964 107.183 101.586 
46.8312 107.173 100.839 47.4185 107.038 100.175 47.9629 106.777 99.584 
48.3589 106.441 99.0449 48.6333 106.124 98.5036 48.8811 105.841 97.9387 
44.609 106.423 103.409 43.9447 106.14 103.342 43.2748 105.801 103.218 
42.6105 105.385 103.029 41.9199 104.922 102.793 41.2245 104.464 102.558 
40.6013 103.98 102.359 40.1083 103.438 102.175 39.7424 102.877 101.982 
45.7825 106.867 103.893 46.4656 107.009 104.385 47.2553 107.113 104.904 
48.2065 107.177 105.383 49.293 107.105 105.703 50.2661 106.848 105.83 
51.0201 106.506 105.874 51.692 106.129 105.914 52.2931 105.705 105.911 
45.1531 106.624 104.162 45.0874 106.513 104.959 44.9999 106.348 105.783 
44.8906 106.143 106.531 44.757 105.862 107.221 44.5713 105.537 107.866 
44.4017 105.137 108.345 44.3378 104.538 108.593 44.319 103.82 108.649 
50.6228 102.284 99.0468 50.7452 102.72 98.879 50.838 103.17 98.6371 
50.889 103.643 98.3144 50.9329 104.172 97.9399 50.8667 104.705 97.6386 
50.5526 105.101 97.4984 50.0748 105.333 97.4499 49.5793 105.477 97.4175 
50.9931 102.224 99.9863 51.521 102.669 100.864 52.0655 103.138 101.762 
52.736 103.476 102.471 53.5426 103.738 102.914 54.0943 104.125 103.481 
54.0823 104.561 104.306 53.6985 104.856 105.013 53.2304 105.055 105.467 
50.1809 101.758 98.187 49.9151 101.525 97.0941 49.7351 101.153 95.9598 
49.6655 100.734 94.7042 49.6325 100.401 93.3589 49.5253 100.235 92.2152 
49.3227 100.208 91.3515 48.9474 100.258 90.7388 48.3406 100.365 90.4632 
49.5574 105.854 98.2452 50.0734 106.114 99.1715 50.6451 106.352 100.139 
51.2601 106.505 101.102 51.9064 106.543 102.026 52.4387 106.48 102.939 
52.7214 106.277 103.862 52.8284 105.943 104.683 52.8385 105.586 105.321 
48.9395 105.194 96.5938 48.7645 104.753 95.687 48.6404 104.3 94.6423 
48.5652 103.837 93.5167 48.455 103.323 92.4562 48.3645 102.774 91.4706 
48.394 102.239 90.5839 48.3639 101.684 90.0878 48.0762 101.073 90.1218 
41.3075 97.4167 103.466 40.6795 97.5906 103.56 40.0428 97.9226 103.502 
39.5288 98.3901 103.355 39.1931 99.0606 103.148 38.9766 99.8543 102.898 
38.9212 100.596 102.625 39.0564 101.246 102.336 39.2624 101.829 102.046 
41.8306 97.5992 103.988 41.8463 97.8708 104.741 41.882 98.3482 105.394 
41.9657 98.9985 105.99 42.1938 99.6814 106.619 42.5674 100.384 107.185 
42.9753 101.171 107.617 43.3722 101.941 107.985 43.8089 102.595 108.305 
41.674 97.3067 102.598 41.5091 97.2459 101.815 41.3313 97.189 100.838 
41.2519 97.0982 99.7335 41.4425 97.107 98.6436 41.7875 97.2102 97.654 
42.0343 97.2744 96.6966 42.1721 97.3436 95.7702 42.3015 97.4713 94.9869 
39.592 102.486 102.545 39.8532 102.613 103.36 40.2072 102.735 104.205 
40.5966 102.897 105.089 41.0547 103.084 105.958 41.6178 103.217 106.743 
42.2331 103.266 107.443 42.8755 103.252 107.991 43.5594 103.205 108.334 
39.3109 101.832 101.183 39.2997 101.273 100.537 39.4203 100.738 99.8122 
39.5791 100.245 98.9724 39.8454 99.7212 98.0848 40.3529 99.1843 97.2624 
40.9391 98.709 96.5188 41.4378 98.2864 95.7774 41.9192 97.9114 95.0236 
52.3333 105.253 106.429 51.8127 105.228 107.041 51.2212 105.189 107.623 
50.4895 105.122 108.154 49.518 104.939 108.55 48.3624 104.628 108.82 
47.196 104.29 109.043 46.1114 103.944 109.095 45.1293 103.559 108.889 
46.9921 100.126 90.6233 46.3945 99.6769 90.6955 45.7282 99.1722 90.8083 
44.9699 98.7081 91.1108 44.1971 98.2636 91.3784 43.3749 97.7633 91.4997 
42.7218 97.3781 91.8518 42.5375 97.3195 92.6192 42.5511 97.4647 93.5204 
47.0077 97.0941 96.3677 47.4433 97.6002 96.5831 47.1281 97.7131 97.3211 
47.8929 98.1407 96.8771 47.5866 98.1946 97.6069 47.2968 98.2542 98.3942 
48.3434 98.7679 97.2291 48.0821 98.7305 97.9808 47.7945 98.7388 98.7625 
47.4503 98.7918 99.5353 48.8056 99.4246 97.7158 48.5986 99.3341 98.4667 
48.3286 99.3019 99.2474 47.9784 99.338 99.9867 47.6267 99.333 100.715 
49.3028 100.029 98.3326 49.1325 99.9435 99.0739 48.8717 99.9107 99.8122 
48.5484 99.9152 100.49 48.2031 99.9041 101.142 47.851 99.8414 101.778 
49.8124 100.619 98.8961 49.6904 100.548 99.644 49.4353 100.56 100.361 
49.1227 100.535 100.987 48.8033 100.498 101.588 48.469 100.43 102.176 
48.0763 100.348 102.688 50.2851 101.181 99.343 50.2572 101.096 100.077 
50.0532 101.141 100.828 49.7592 101.145 101.472 49.4288 101.113 102.08 
49.0925 101.067 102.682 48.7438 100.929 103.165 48.347 100.75 103.564 
47.1103 96.2682 95.0009 47.3481 96.1581 94.3541 47.5608 96.8477 95.0921 
47.7388 96.1539 93.6899 47.8193 96.8318 94.4085 48.0674 97.4396 95.2814 
48.1805 96.3657 93.0091 48.224 96.8952 93.7171 48.3481 97.5011 94.586 
48.5241 98.1167 95.5435 48.3967 96.986 92.3017 48.6548 97.1788 92.9776 
48.6568 97.7276 93.8819 48.7605 98.2978 94.84 48.8578 98.9373 95.8883 
48.3987 97.8846 91.7034 48.8985 97.7985 92.2206 48.9686 98.1506 93.1263 
48.9711 98.6571 94.123 49.0606 99.1913 95.1947 49.1728 99.7698 96.4019 
48.3698 98.7877 91.2573 48.9759 98.6004 91.6118 49.2231 98.7206 92.3888 
49.2387 99.0885 93.4003 49.2735 99.5318 94.5353 49.3527 100.058 95.7774 
49.5165 100.543 97.0437 48.3581 99.6181 90.8492 48.986 99.4475 91.1432 
49.3471 99.4184 91.796 49.4736 99.5856 92.7371 49.5035 99.9131 93.9272 
49.5269 100.368 95.2276 49.6254 100.864 96.4797 49.8498 101.223 97.6523 
48.7215 101.002 90.3133 48.8082 101.64 90.6362 49.1315 100.977 90.906 
48.7388 102.25 91.4246 49.0949 101.685 91.5177 49.3763 100.995 91.7772 
48.7894 102.873 92.3894 49.1083 102.358 92.4105 49.3979 101.76 92.5391 
49.5887 101.056 92.8654 48.9412 103.497 93.4085 49.2584 103.036 93.401 
49.5376 102.481 93.4858 49.7029 101.866 93.7627 49.7338 101.25 94.227 
49.0874 104.076 94.5079 49.4684 103.731 94.4619 49.7646 103.227 94.5156 
49.9314 102.634 94.7424 49.9497 102.055 95.1409 49.8636 101.552 95.5836 
49.2487 104.604 95.5909 49.7146 104.371 95.5339 50.0661 103.974 95.5529 
50.2317 103.416 95.744 50.2683 102.81 96.0757 50.2165 102.276 96.4334 
50.0755 101.86 96.7781 49.4244 105.077 96.5589 49.93 104.903 96.5394 
50.3641 104.602 96.5497 50.5726 104.126 96.7097 50.5911 103.546 97.0383 
50.5681 102.984 97.3834 50.4856 102.509 97.6808 50.3273 102.119 97.9543 
51.0864 102.73 99.946 51.1749 103.252 99.8136 51.6391 103.214 100.826 
51.2566 103.715 99.5476 51.7615 103.738 100.667 52.2815 103.643 101.643 
51.3262 104.186 99.1818 51.8826 104.203 100.344 52.4947 104.166 101.363 
53.0469 104.012 102.205 51.3123 104.764 98.8189 51.8983 104.763 99.9745 
52.5925 104.711 100.964 53.239 104.618 101.821 53.7533 104.434 102.63 
51.0641 105.28 98.558 51.677 105.389 99.6782 52.4013 105.35 100.665 
53.1242 105.231 101.507 53.6904 105.099 102.378 54.0097 104.889 103.347 
[...]
POINT_DATA 1002
SCALARS Color_Map_Phi float
LOOKUP_TABLE default
6.28319 3.14159 6.28319 3.14159 4.71239 4.71239 1.5708 1.5708 3.69517 
5.72961 2.58802 0.553574 6.28319 6.28319 6.28319 6.28319 3.14159 3.14159 
3.14159 3.14159 3.14159 6.1053 5.8988 5.67687 5.45995 5.26596 5.10322 
4.97131 4.86569 4.78095 0.177881 0.384387 0.606312 0.823235 1.01722 1.17997 
1.31187 1.4175 1.50223 6.18928 6.10703 6.03531 5.97283 5.91832 5.87061 
5.82869 5.79168 5.75886 0.0939024 0.176153 0.247873 0.310351 0.364864 0.412573 
0.454497 0.491504 0.524326 3.31947 3.52598 3.7479 3.96483 4.15881 4.32156 
4.45346 4.55909 4.64383 2.96371 2.75721 2.53528 2.31836 2.12437 1.96162 
1.82972 1.72409 1.63936 3.2355 3.31775 3.38947 3.45194 3.50646 3.55417 
3.59609 3.6331 3.66592 3.04769 2.96544 2.89372 2.83124 2.77673 2.72902 
2.6871 2.65009 2.61727 6.28319 6.28319 6.28319 6.28319 3.14159 3.14159 
3.14159 3.14159 3.14159 6.1053 5.8988 5.67687 5.45995 5.26596 5.10322 
4.97131 4.86569 4.78095 0.177881 0.384387 0.606312 0.823235 1.01722 1.17997 
1.31187 1.4175 1.50223 6.18928 6.10703 6.03531 5.97283 5.91832 5.87061 
5.82869 5.79168 5.75886 0.0939024 0.176153 0.247873 0.310351 0.364864 0.412573 
0.454497 0.491504 0.524326 3.31947 3.52598 3.7479 3.96483 4.15881 4.32156 
4.45346 4.55909 4.64383 2.96371 2.75721 2.53528 2.31836 2.12437 1.96162 
1.82972 1.72409 1.63936 3.2355 3.31775 3.38947 3.45194 3.50646 3.55417 
3.59609 3.6331 3.66592 3.04769 2.96544 2.89372 2.83124 2.77673 2.72902 
2.6871 2.65009 2.61727 4.71239 4.71239 4.71239 4.71239 4.71239 4.71239 
4.71239 4.71239 4.71239 4.60879 4.49914 4.3857 4.27128 4.15881 4.05096 
3.94976 3.85646 3.77161 4.81599 4.92564 5.03907 5.1535 5.26596 5.37381 
5.47502 5.56831 5.65317 4.60879 4.49914 4.3857 4.27128 4.15881 4.05096 
3.94976 3.85646 3.77161 4.81599 4.92564 5.03907 5.1535 5.26596 5.37381 
5.47502 5.56831 5.65317 1.5708 1.5708 1.5708 1.5708 1.5708 1.5708 
1.5708 1.5708 1.5708 1.6744 1.78405 1.89748 2.01191 2.12437 2.23222 
2.33343 2.42672 2.51157 1.4672 1.35755 1.24411 1.12969 1.01722 0.909371 
0.808166 0.714871 0.63002 1.6744 1.78405 1.89748 2.01191 2.12437 2.23222 
2.33343 2.42672 2.51157 1.4672 1.35755 1.24411 1.12969 1.01722 0.909371 
0.808166 0.714871 0.63002 3.60077 3.49669 3.38395 3.26458 3.14159 3.01861 
2.89924 2.78649 2.68241 5.82401 5.92808 6.04083 6.1602 6.28319 0.122983 
0.242354 0.355101 0.459179 6.05603 5.78856 5.97021 5.51259 5.60297 5.78856 
5.26596 5.26596 5.26596 5.26596 5.06749 5.0121 4.91556 4.71239 4.15881 
4.91556 4.83537 4.71239 4.50922 4.15881 3.63622 4.80045 4.71239 4.58941 
4.41268 4.15881 3.82181 3.45456 4.71239 4.62433 4.50922 4.35729 4.15881 
3.91219 3.63622 3.36875 6.01742 5.94343 5.82633 5.88092 5.76745 5.62798 
5.8278 5.71897 5.58911 5.43724 5.78235 5.67854 5.55757 5.41926 5.26596 
5.74316 5.64441 5.5315 5.40467 5.26596 5.11955 5.70914 5.61528 5.50962 
5.3926 5.26596 5.13292 4.99789 5.67937 5.59016 5.49102 5.38246 5.26596 
5.14407 5.02016 4.89798 5.56831 5.47502 5.47502 5.37381 5.37381 5.37381 
5.26596 5.26596 5.26596 5.26596 5.1535 5.1535 5.1535 5.1535 5.1535 
5.03907 5.03907 5.03907 5.03907 5.03907 5.03907 4.92564 4.92564 4.92564 
4.92564 4.92564 4.92564 4.92564 4.81599 4.81599 4.81599 4.81599 4.81599 
4.81599 4.81599 4.81599 4.60879 4.60879 4.49914 4.60879 4.49914 4.3857 
4.60879 4.49914 4.3857 4.27128 4.60879 4.49914 4.3857 4.27128 4.15881 
4.60879 4.49914 4.3857 4.27128 4.15881 4.05096 4.60879 4.49914 4.3857 
4.27128 4.15881 4.05096 3.94976 4.60879 4.49914 4.3857 4.27128 4.15881 
4.05096 3.94976 3.85646 4.5268 4.40462 4.42689 4.28071 4.29185 4.30523 
4.15881 4.15881 4.15881 4.15881 4.04232 4.03217 4.02011 4.00552 3.98753 
3.93376 3.91515 3.89328 3.86721 3.83566 3.7968 3.83461 3.8095 3.78037 
3.74624 3.70581 3.65733 3.59845 3.7454 3.71564 3.68161 3.64243 3.59698 
3.54386 3.48135 3.40735 3.56428 3.45246 3.52338 3.33203 3.40312 3.47739 
3.20576 3.27463 3.34802 3.42551 3.07742 3.14159 3.21128 3.28647 3.36688 
2.95116 3.00855 3.0719 3.14159 3.21784 3.3006 2.83072 2.88006 2.93517 
2.99672 3.06535 3.14159 3.22575 2.7189 2.7598 2.8058 2.85768 2.9163 
2.98259 3.05743 3.14159 3.56428 3.52338 3.45246 3.47739 3.40312 3.33203 
3.42551 3.34802 3.27463 3.20576 3.36688 3.28647 3.21128 3.14159 3.07742 
3.3006 3.21784 3.14159 3.0719 3.00855 2.95116 3.22575 3.14159 3.06535 
2.99672 2.93517 2.88006 2.83072 3.14159 3.05743 2.98259 2.9163 2.85768 
2.8058 2.7598 2.7189 4.5268 4.42689 4.40462 4.30523 4.29185 4.28071 
4.15881 4.15881 4.15881 4.15881 3.98753 4.00552 4.02011 4.03217 4.04232 
3.7968 3.83566 3.86721 3.89328 3.91515 3.93376 3.59845 3.65733 3.70581 
3.74624 3.78037 3.8095 3.83461 3.40735 3.48135 3.54386 3.59698 3.64243 
3.68161 3.71564 3.7454 4.71239 4.80045 4.62433 4.91556 4.71239 4.50922 
5.06749 4.83537 4.58941 4.35729 5.26596 5.0121 4.71239 4.41268 4.15881 
5.51259 5.26596 4.91556 4.50922 4.15881 3.91219 5.78856 5.60297 5.26596 
4.71239 4.15881 3.82181 3.63622 6.05603 5.97021 5.78856 5.26596 4.15881 
3.63622 3.45456 3.36875 0.227158 0.494626 0.312971 0.770593 0.680215 0.494626 
1.01722 1.01722 1.01722 1.01722 1.2157 1.27109 1.36763 1.5708 2.12437 
1.36763 1.44781 1.5708 1.77397 2.12437 2.64697 1.48273 1.5708 1.69378 
1.8705 2.12437 2.46138 2.82862 1.5708 1.65886 1.77397 1.9259 2.12437 
2.371 2.64697 2.91443 1.75639 1.87857 1.8563 2.00248 1.99133 1.97796 
2.12437 2.12437 2.12437 2.12437 2.24087 2.25101 2.26308 2.27767 2.29565 
2.34943 2.36803 2.38991 2.41597 2.44752 2.48639 2.44857 2.47368 2.50281 
2.53694 2.57738 2.62586 2.68474 2.53778 2.56754 2.60157 2.64076 2.68621 
2.73933 2.80184 2.87583 1.6744 1.6744 1.78405 1.6744 1.78405 1.89748 
1.6744 1.78405 1.89748 2.01191 1.6744 1.78405 1.89748 2.01191 2.12437 
1.6744 1.78405 1.89748 2.01191 2.12437 2.23222 1.6744 1.78405 1.89748 
2.01191 2.12437 2.23222 2.33343 1.6744 1.78405 1.89748 2.01191 2.12437 
2.23222 2.33343 2.42672 1.4672 1.35755 1.4672 1.24411 1.35755 1.4672 
1.12969 1.24411 1.35755 1.4672 1.01722 1.12969 1.24411 1.35755 1.4672 
0.909371 1.01722 1.12969 1.24411 1.35755 1.4672 0.808166 0.909371 1.01722 
1.12969 1.24411 1.35755 1.4672 0.714871 0.808166 0.909371 1.01722 1.12969 
1.24411 1.35755 1.4672 0.603812 0.57405 0.693022 0.540021 0.667908 0.792164 
0.500837 0.638778 0.773562 0.900726 0.455383 0.604649 0.751687 0.890581 1.01722 
0.402264 0.564217 0.725619 0.878514 1.01722 1.13912 0.339753 0.515737 0.694072 
0.863926 1.01722 1.15026 1.26302 0.265762 0.456853 0.655207 0.845941 1.01722 
1.16363 1.28529 1.38521 0.227158 0.312971 0.494626 0.494626 0.680215 0.770593 
1.01722 1.01722 1.01722 1.01722 2.12437 1.5708 1.36763 1.27109 1.2157 
2.64697 2.12437 1.77397 1.5708 1.44781 1.36763 2.82862 2.46138 2.12437 
1.8705 1.69378 1.5708 1.48273 2.91443 2.64697 2.371 2.12437 1.9259 
1.77397 1.65886 1.5708 1.75639 1.8563 1.87857 1.97796 1.99133 2.00248 
2.12437 2.12437 2.12437 2.12437 2.29565 2.27767 2.26308 2.25101 2.24087 
2.48639 2.44752 2.41597 2.38991 2.36803 2.34943 2.68474 2.62586 2.57738 
2.53694 2.50281 2.47368 2.44857 2.87583 2.80184 2.73933 2.68621 2.64076 
2.60157 2.56754 2.53778 5.86049 5.90139 5.97231 5.94739 6.02165 6.09275 
5.99927 6.07676 6.15015 6.21902 6.0579 6.13831 6.2135 0 0.0641696 
6.12418 6.20694 6.28319 0.069689 0.13304 0.190437 6.19903 0 0.0762451 
0.144876 0.206423 0.261531 0.310872 0 0.0841597 0.159004 0.225289 0.283913 
0.335793 0.381792 0.422692 5.86049 5.97231 5.90139 6.09275 6.02165 5.94739 
6.21902 6.15015 6.07676 5.99927 0.0641696 0 6.2135 6.13831 6.0579 
0.190437 0.13304 0.069689 6.28319 6.20694 6.12418 0.310872 0.261531 0.206423 
0.144876 0.0762451 6.28319 6.19903 0.422692 0.381792 0.335793 0.283913 0.225289 
0.159004 0.0841597 0 5.67937 5.70914 5.59016 5.74316 5.61528 5.49102 
5.78235 5.64441 5.50962 5.38246 5.8278 5.67854 5.5315 5.3926 5.26596 
5.88092 5.71897 5.55757 5.40467 5.26596 5.14407 5.94343 5.76745 5.58911 
5.41926 5.26596 5.13292 5.02016 6.01742 5.82633 5.62798 5.43724 5.26596 
5.11955 4.99789 4.89798 1.38521 1.28529 1.26302 1.16363 1.15026 1.13912 
1.01722 1.01722 1.01722 1.01722 0.845941 0.863926 0.878514 0.890581 0.900726 
0.655207 0.694072 0.725619 0.751687 0.773562 0.792164 0.456853 0.515737 0.564217 
0.604649 0.638778 0.667908 0.693022 0.265762 0.339753 0.402264 0.455383 0.500837 
0.540021 0.57405 0.603812 
