# vtk DataFile Version 4.1
vtk output
ASCII
DATASET POLYDATA
POINTS 1002 float
47.3721 95.235 95.4425 50.3915 98.8017 104.85 42.9503 103.689 93.008 
44.7046 105.798 102.785 53.0955 100.991 98.2341 49.4467 105.422 96.8909 
42.4083 96.7679 102.38 38.7935 101.455 101.091 53.2715 105.423 105.718 
48.2359 100.999 90.1443 44.477 101.585 107.732 41.997 97.2538 93.0996 
47.403 95.8791 96.0849 47.4105 96.6572 96.818 47.4158 97.4703 97.6641 
47.5722 98.0988 98.7014 47.9146 98.4987 99.9524 48.3248 98.7693 101.297 
48.7436 98.9469 102.548 49.2277 99.0051 103.533 49.8162 98.9245 104.24 
47.6584 95.9538 95.5141 48.0168 96.7276 95.6094 48.4279 97.4904 95.8121 
48.9108 98.2713 96.1568 49.5781 98.9359 96.5905 50.3961 99.4258 97.0215 
51.1927 99.8889 97.3909 51.951 100.288 97.7002 52.6155 100.62 97.9786 
47.0848 95.0487 95.7681 46.7174 95.0486 96.1804 46.2967 95.1796 96.7453 
45.8561 95.3844 97.4356 45.3482 95.7218 98.1787 44.7624 96.1038 98.9733 
44.1763 96.3803 99.8105 43.6136 96.5739 100.68 43.0275 96.7226 101.567 
47.5496 95.095 94.8679 47.8239 95.0813 94.2469 48.1454 95.3038 93.5714 
48.3841 95.8455 92.898 48.4372 96.6651 92.3099 48.331 97.6686 91.7848 
48.2464 98.6499 91.2968 48.2588 99.4931 90.8951 48.2613 100.277 90.5155 
47.2 94.4453 95.0375 46.8895 93.5755 94.6887 46.3162 93.0063 94.4009 
45.5808 93.0316 94.0823 44.8335 93.6171 93.6982 44.0652 94.4166 93.3512 
43.3668 95.2098 93.0947 42.8394 95.9787 92.9542 42.4094 96.6803 92.9716 
50.852 99.0376 104.463 51.2833 99.3329 104.022 51.6682 99.6734 103.541 
51.9767 100.048 103.029 52.2331 100.397 102.406 52.4641 100.654 101.615 
52.6826 100.813 100.726 52.9095 100.873 99.8355 53.077 100.893 98.9906 
49.5301 98.6722 104.83 48.616 98.5022 104.765 47.7201 98.2474 104.599 
46.8678 97.9606 104.275 46.0257 97.6455 103.884 45.2315 97.3018 103.59 
44.5733 97.0081 103.37 43.885 96.8242 103.071 43.0985 96.7423 102.719 
51.1504 98.9187 105.277 51.8286 99.2246 105.751 52.4173 99.7403 106.138 
52.8485 100.478 106.296 53.0759 101.426 106.271 53.3036 102.421 106.269 
53.5243 103.322 106.295 53.533 104.127 106.197 53.4213 104.842 105.978 
50.3157 98.6668 105.503 50.0752 98.6479 106.175 49.6646 98.8136 106.744 
49.0338 99.153 107.195 48.2429 99.569 107.507 47.4425 100.046 107.635 
46.6464 100.5 107.729 45.8194 100.862 107.833 45.0787 101.204 107.835 
42.9798 103.929 93.8114 43.0057 104.173 94.7254 43.0293 104.464 95.727 
43.1242 104.739 96.8206 43.3093 104.95 97.9716 43.5372 105.156 99.0943 
43.7771 105.403 100.136 44.041 105.629 101.108 44.3506 105.76 102.006 
43.437 103.95 92.8852 43.9628 104.239 92.8335 44.574 104.52 92.9065 
45.2676 104.743 93.1606 45.9739 104.956 93.5691 46.7199 105.159 94.1163 
47.5147 105.3 94.842 48.2393 105.396 95.61 48.8795 105.44 96.2924 
42.4821 103.588 93.6736 41.9694 103.436 94.4206 41.4013 103.264 95.203 
40.81 103.112 96.0314 40.2697 102.926 96.9309 39.8009 102.681 97.8305 
39.3388 102.459 98.6618 38.956 102.225 99.4784 38.7965 101.871 100.313 
43.2543 103.581 92.1599 43.5938 103.484 91.2702 43.8951 103.385 90.3168 
44.2119 103.296 89.369 44.7878 103.179 88.9125 45.6137 102.91 89.1223 
46.4127 102.488 89.4824 47.1 102.014 89.7158 47.7091 101.517 89.9193 
42.6658 103.319 92.6915 42.3951 102.847 92.4507 42.1047 102.315 92.2712 
41.7871 101.711 92.145 41.5155 100.97 92.1021 41.3361 100.101 92.1288 
41.2572 99.178 92.216 41.3477 98.3438 92.4236 41.629 97.7119 92.7338 
45.1155 106.046 102.314 45.5848 106.268 101.776 46.0944 106.45 101.147 
46.6209 106.553 100.403 47.2148 106.531 99.6349 47.8691 106.415 98.964 
48.4517 106.237 98.3758 48.885 106.003 97.816 49.2015 105.725 97.3191 
44.0529 105.511 102.76 43.2976 105.229 102.696 42.5133 104.923 102.595 
41.7394 104.547 102.48 40.9365 104.172 102.353 40.2153 103.755 102.175 
39.6496 103.227 101.948 39.186 102.699 101.686 38.8947 102.135 101.392 
45.3607 105.951 103.211 46.1696 106.021 103.598 47.0795 106.065 103.982 
48.0131 106.183 104.438 48.9549 106.28 104.901 49.9283 106.233 105.242 
50.9333 106.144 105.482 51.913 106.039 105.659 52.7233 105.803 105.735 
44.6824 105.618 103.477 44.6306 105.392 104.149 44.5909 105.053 104.807 
44.5603 104.632 105.44 44.4962 104.23 106.048 44.4346 103.81 106.637 
44.4191 103.338 107.139 44.4196 102.845 107.469 44.4397 102.243 107.661 
53.1829 101.485 97.9623 53.137 102.155 97.73 52.9658 102.83 97.5902 
52.6068 103.393 97.5452 52.0939 103.842 97.4718 51.5389 104.241 97.3382 
50.9744 104.618 97.2211 50.4294 104.931 97.1149 49.9196 105.191 97.001 
53.444 101.389 98.9479 53.7353 101.88 99.7199 54.041 102.411 100.524 
54.4024 102.938 101.327 54.7289 103.461 102.163 54.8218 104.01 103.143 
54.6498 104.531 104.136 54.309 104.929 104.877 53.8276 105.219 105.356 
52.7019 100.945 97.364 52.1683 100.933 96.503 51.5621 100.921 95.6195 
50.9754 100.88 94.6503 50.4684 100.808 93.5979 50.0894 100.763 92.4864 
49.8537 100.741 91.3812 49.5539 100.754 90.5499 48.9802 100.847 90.1991 
49.8869 105.567 97.7317 50.4078 105.73 98.6184 50.9636 105.906 99.5284 
51.5102 106.036 100.454 52.0655 106.106 101.406 52.5525 106.103 102.41 
52.9199 106.039 103.449 53.2151 105.95 104.405 53.3585 105.764 105.164 
49.3146 105.129 96.054 49.1355 104.81 95.0692 48.9587 104.464 94.0267 
48.8502 104.09 92.9748 48.8134 103.739 91.8327 48.8734 103.371 90.7697 
48.9996 102.845 90.0409 48.9868 102.217 89.707 48.6967 101.586 89.7924 
41.6706 96.8514 102.606 41.0213 97.019 102.743 40.3358 97.2949 102.728 
39.6679 97.6642 102.643 39.1351 98.0919 102.521 38.6751 98.7017 102.281 
38.4231 99.4154 101.963 38.5309 100.076 101.657 38.7361 100.74 101.371 
42.1798 96.7046 103.341 42.0691 96.7494 104.288 42.1124 97.0947 105.031 
42.2241 97.6793 105.565 42.4361 98.3464 106.059 42.755 99.0241 106.554 
43.0917 99.6744 106.981 43.4837 100.281 107.338 43.9779 100.927 107.586 
42.2303 96.8494 101.558 42.1242 96.8744 100.629 42.0693 96.8023 99.5816 
42.0937 96.7332 98.4958 42.1359 96.6793 97.4036 42.1521 96.6329 96.3225 
42.1974 96.7174 95.3815 42.2259 96.909 94.5846 42.1554 97.0907 93.8258 
38.8913 101.486 102.013 39.1173 101.496 102.9 39.4891 101.461 103.752 
39.9351 101.48 104.642 40.4293 101.582 105.534 41.0039 101.663 106.328 
41.7288 101.67 106.915 42.6208 101.638 107.296 43.5837 101.599 107.533 
38.7559 100.979 100.316 38.7443 100.537 99.4791 38.8209 100.101 98.5751 
39.1102 99.6028 97.6814 39.6246 99.1902 96.9295 40.249 98.8889 96.1812 
40.8414 98.5125 95.3311 41.324 98.0914 94.5259 41.6935 97.6724 93.7709 
52.7466 105.245 106.218 52.1211 105.031 106.74 51.3865 104.796 107.246 
50.4354 104.443 107.661 49.3867 103.955 107.96 48.33 103.425 108.189 
47.2513 102.901 108.293 46.2219 102.418 108.184 45.3121 101.991 107.947 
47.4619 100.722 90.3644 46.7307 100.342 90.5105 46.0157 99.8152 90.6541 
45.281 99.2313 90.8515 44.5748 98.6944 91.067 43.8505 98.2092 91.326 
43.0351 97.7145 91.5634 42.392 97.3104 91.8136 42.1017 97.1759 92.3391 
47.7211 96.6269 96.2166 48.1165 97.3885 96.409 47.7578 97.4002 97.0307 
48.6073 98.1261 96.756 48.2645 98.0668 97.3663 47.892 98.0896 98.0099 
49.234 98.838 97.221 48.9099 98.7228 97.8616 48.5692 98.6334 98.5203 
48.2253 98.5744 99.2233 50.0566 99.3578 97.6906 49.6982 99.2899 98.389 
49.3416 99.1971 99.1232 48.9991 99.0575 99.8617 48.66 98.9168 100.584 
50.9183 99.7924 98.1345 50.6095 99.678 98.88 50.2254 99.622 99.6686 
49.8287 99.5195 100.472 49.4814 99.3266 101.2 49.1171 99.1391 101.89 
51.7289 100.224 98.5169 51.4904 100.08 99.3339 51.1966 99.9421 100.139 
50.797 99.8424 100.963 50.4236 99.647 101.714 50.0684 99.4069 102.371 
49.6482 99.2037 102.995 52.4887 100.561 98.7907 52.2763 100.49 99.6558 
52.0436 100.352 100.511 51.7444 100.196 101.354 51.4055 99.9774 102.118 
51.0829 99.6772 102.749 50.7054 99.3879 103.306 50.2616 99.1422 103.813 
47.8557 95.9124 94.9031 48.1502 95.9616 94.2619 48.2292 96.7398 94.9915 
48.5278 96.1925 93.5533 48.5193 96.8695 94.3505 48.6614 97.5823 95.1839 
48.8647 96.6775 92.7911 48.9009 97.1466 93.6288 48.9622 97.7865 94.5392 
49.2041 98.4 95.5241 49.0173 97.435 92.0848 49.2715 97.5949 92.8284 
49.3232 98.0955 93.8355 49.5453 98.6043 94.8827 49.9444 99.0364 95.9649 
49.0257 98.3576 91.488 49.499 98.2763 92.0902 49.6665 98.5336 93.0947 
49.8735 98.9385 94.2107 50.271 99.2541 95.3109 50.755 99.5581 96.3698 
49.0387 99.2589 91.0005 49.6034 99.1252 91.473 49.8671 99.1871 92.4095 
50.1005 99.4257 93.5423 50.483 99.671 94.658 50.9882 99.8483 95.7112 
51.5117 100.058 96.7027 49.0377 100.087 90.5799 49.6249 99.978 90.9671 
49.9232 99.9764 91.8364 50.162 100.061 92.9637 50.5451 100.21 94.0815 
51.0469 100.334 95.1359 51.6232 100.414 96.1053 52.1831 100.502 97.0315 
49.3101 101.496 90.0818 49.3534 102.179 90.437 49.6458 101.468 90.8739 
49.2592 102.813 91.113 49.5925 102.181 91.5533 49.8909 101.484 91.9946 
49.2394 103.301 91.9921 49.6524 102.805 92.3194 50.002 102.202 92.7224 
50.2846 101.493 93.1503 49.2983 103.703 93.0669 49.7844 103.286 93.2532 
50.2308 102.82 93.5278 50.5908 102.209 93.871 50.8404 101.508 94.2595 
49.412 104.128 94.1375 49.9078 103.733 94.311 50.4219 103.323 94.5195 
50.8914 102.836 94.7428 51.2514 102.213 95.0053 51.4663 101.533 95.3118 
49.5923 104.532 95.148 50.0822 104.193 95.2959 50.6096 103.8 95.4638 
51.139 103.366 95.6504 51.6098 102.844 95.8319 51.9401 102.213 96.0214 
52.1177 101.531 96.2506 49.781 104.88 96.1272 50.278 104.591 96.2319 
50.813 104.239 96.3484 51.3671 103.835 96.4884 51.8944 103.381 96.6497 
52.3281 102.846 96.7699 52.5857 102.197 96.9102 52.7123 101.509 97.1101 
53.5473 101.949 98.6865 53.5345 102.651 98.4433 53.8919 102.473 99.4754 
53.3116 103.328 98.3313 53.8833 103.185 99.2425 54.2138 103.051 100.315 
52.8154 103.859 98.3462 53.5404 103.852 99.1536 54.1115 103.782 100.133 
54.4812 103.662 101.179 52.2174 104.277 98.2969 52.9367 104.344 99.1675 
53.6447 104.402 100.061 54.2238 104.381 101.065 54.6086 104.242 102.071 
51.6201 104.684 98.1613 52.3131 104.756 99.09 53.0096 104.851 100.021 
53.6774 104.937 100.982 54.1917 104.905 101.955 54.4937 104.757 103.032 
51.0071 105.051 98.0235 51.6684 105.164 98.9335 52.3336 105.252 99.8906 
[...]
POINT_DATA 1002
SCALARS Color_Map_Phi float
LOOKUP_TABLE default
6.28319 3.14159 6.28319 3.14159 4.71239 4.71239 1.5708 1.5708 3.69517 
5.72961 2.58802 0.553574 6.28319 6.28319 6.28319 6.28319 3.14159 3.14159 
3.14159 3.14159 3.14159 6.1053 5.8988 5.67687 5.45995 5.26596 5.10322 
4.97131 4.86569 4.78095 0.177881 0.384387 0.606312 0.823235 1.01722 1.17997 
1.31187 1.4175 1.50223 6.18928 6.10703 6.03531 5.97283 5.91832 5.87061 
5.82869 5.79168 5.75886 0.0939024 0.176153 0.247873 0.310351 0.364864 0.412573 
0.454497 0.491504 0.524326 3.31947 3.52598 3.7479 3.96483 4.15881 4.32156 
4.45346 4.55909 4.64383 2.96371 2.75721 2.53528 2.31836 2.12437 1.96162 
1.82972 1.72409 1.63936 3.2355 3.31775 3.38947 3.45194 3.50646 3.55417 
3.59609 3.6331 3.66592 3.04769 2.96544 2.89372 2.83124 2.77673 2.72902 
2.6871 2.65009 2.61727 6.28319 6.28319 6.28319 6.28319 3.14159 3.14159 
3.14159 3.14159 3.14159 6.1053 5.8988 5.67687 5.45995 5.26596 5.10322 
4.97131 4.86569 4.78095 0.177881 0.384387 0.606312 0.823235 1.01722 1.17997 
1.31187 1.4175 1.50223 6.18928 6.10703 6.03531 5.97283 5.91832 5.87061 
5.82869 5.79168 5.75886 0.0939024 0.176153 0.247873 0.310351 0.364864 0.412573 
0.454497 0.491504 0.524326 3.31947 3.52598 3.7479 3.96483 4.15881 4.32156 
4.45346 4.55909 4.64383 2.96371 2.75721 2.53528 2.31836 2.12437 1.96162 
1.82972 1.72409 1.63936 3.2355 3.31775 3.38947 3.45194 3.50646 3.55417 
3.59609 3.6331 3.66592 3.04769 2.96544 2.89372 2.83124 2.77673 2.72902 
2.6871 2.65009 2.61727 4.71239 4.71239 4.71239 4.71239 4.71239 4.71239 
4.71239 4.71239 4.71239 4.60879 4.49914 4.3857 4.27128 4.15881 4.05096 
3.94976 3.85646 3.77161 4.81599 4.92564 5.03907 5.1535 5.26596 5.37381 
5.47502 5.56831 5.65317 4.60879 4.49914 4.3857 4.27128 4.15881 4.05096 
3.94976 3.85646 3.77161 4.81599 4.92564 5.03907 5.1535 5.26596 5.37381 
5.47502 5.56831 5.65317 1.5708 1.5708 1.5708 1.5708 1.5708 1.5708 
1.5708 1.5708 1.5708 1.6744 1.78405 1.89748 2.01191 2.12437 2.23222 
2.33343 2.42672 2.51157 1.4672 1.35755 1.24411 1.12969 1.01722 0.909371 
0.808166 0.714871 0.63002 1.6744 1.78405 1.89748 2.01191 2.12437 2.23222 
2.33343 2.42672 2.51157 1.4672 1.35755 1.24411 1.12969 1.01722 0.909371 
0.808166 0.714871 0.63002 3.60077 3.49669 3.38395 3.26458 3.14159 3.01861 
2.89924 2.78649 2.68241 5.82401 5.92808 6.04083 6.1602 6.28319 0.122983 
0.242354 0.355101 0.459179 6.05603 5.78856 5.97021 5.51259 5.60297 5.78856 
5.26596 5.26596 5.26596 5.26596 5.06749 5.0121 4.91556 4.71239 4.15881 
4.91556 4.83537 4.71239 4.50922 4.15881 3.63622 4.80045 4.71239 4.58941 
4.41268 4.15881 3.82181 3.45456 4.71239 4.62433 4.50922 4.35729 4.15881 
3.91219 3.63622 3.36875 6.01742 5.94343 5.82633 5.88092 5.76745 5.62798 
5.8278 5.71897 5.58911 5.43724 5.78235 5.67854 5.55757 5.41926 5.26596 
5.74316 5.64441 5.5315 5.40467 5.26596 5.11955 5.70914 5.61528 5.50962 
5.3926 5.26596 5.13292 4.99789 5.67937 5.59016 5.49102 5.38246 5.26596 
5.14407 5.02016 4.89798 5.56831 5.47502 5.47502 5.37381 5.37381 5.37381 
5.26596 5.26596 5.26596 5.26596 5.1535 5.1535 5.1535 5.1535 5.1535 
5.03907 5.03907 5.03907 5.03907 5.03907 5.03907 4.92564 4.92564 4.92564 
4.92564 4.92564 4.92564 4.92564 4.81599 4.81599 4.81599 4.81599 4.81599 
4.81599 4.81599 4.81599 4.60879 4.60879 4.49914 4.60879 4.49914 4.3857 
4.60879 4.49914 4.3857 4.27128 4.60879 4.49914 4.3857 4.27128 4.15881 
4.60879 4.49914 4.3857 4.27128 4.15881 4.05096 4.60879 4.49914 4.3857 
4.27128 4.15881 4.05096 3.94976 4.60879 4.49914 4.3857 4.27128 4.15881 
4.05096 3.94976 3.85646 4.5268 4.40462 4.42689 4.28071 4.29185 4.30523 
4.15881 4.15881 4.15881 4.15881 4.04232 4.03217 4.02011 4.00552 3.98753 
3.93376 3.91515 3.89328 3.86721 3.83566 3.7968 3.83461 3.8095 3.78037 
3.74624 3.70581 3.65733 3.59845 3.7454 3.71564 3.68161 3.64243 3.59698 
3.54386 3.48135 3.40735 3.56428 3.45246 3.52338 3.33203 3.40312 3.47739 
3.20576 3.27463 3.34802 3.42551 3.07742 3.14159 3.21128 3.28647 3.36688 
2.95116 3.00855 3.0719 3.14159 3.21784 3.3006 2.83072 2.88006 2.93517 
2.99672 3.06535 3.14159 3.22575 2.7189 2.7598 2.8058 2.85768 2.9163 
2.98259 3.05743 3.14159 3.56428 3.52338 3.45246 3.47739 3.40312 3.33203 
3.42551 3.34802 3.27463 3.20576 3.36688 3.28647 3.21128 3.14159 3.07742 
3.3006 3.21784 3.14159 3.0719 3.00855 2.95116 3.22575 3.14159 3.06535 
2.99672 2.93517 2.88006 2.83072 3.14159 3.05743 2.98259 2.9163 2.85768 
2.8058 2.7598 2.7189 4.5268 4.42689 4.40462 4.30523 4.29185 4.28071 
4.15881 4.15881 4.15881 4.15881 3.98753 4.00552 4.02011 4.03217 4.04232 
3.7968 3.83566 3.86721 3.89328 3.91515 3.93376 3.59845 3.65733 3.70581 
3.74624 3.78037 3.8095 3.83461 3.40735 3.48135 3.54386 3.59698 3.64243 
3.68161 3.71564 3.7454 4.71239 4.80045 4.62433 4.91556 4.71239 4.50922 
5.06749 4.83537 4.58941 4.35729 5.26596 5.0121 4.71239 4.41268 4.15881 
5.51259 5.26596 4.91556 4.50922 4.15881 3.91219 5.78856 5.60297 5.26596 
4.71239 4.15881 3.82181 3.63622 6.05603 5.97021 5.78856 5.26596 4.15881 
3.63622 3.45456 3.36875 0.227158 0.494626 0.312971 0.770593 0.680215 0.494626 
1.01722 1.01722 1.01722 1.01722 1.2157 1.27109 1.36763 1.5708 2.12437 
1.36763 1.44781 1.5708 1.77397 2.12437 2.64697 1.48273 1.5708 1.69378 
1.8705 2.12437 2.46138 2.82862 1.5708 1.65886 1.77397 1.9259 2.12437 
2.371 2.64697 2.91443 1.75639 1.87857 1.8563 2.00248 1.99133 1.97796 
2.12437 2.12437 2.12437 2.12437 2.24087 2.25101 2.26308 2.27767 2.29565 
2.34943 2.36803 2.38991 2.41597 2.44752 2.48639 2.44857 2.47368 2.50281 
2.53694 2.57738 2.62586 2.68474 2.53778 2.56754 2.60157 2.64076 2.68621 
2.73933 2.80184 2.87583 1.6744 1.6744 1.78405 1.6744 1.78405 1.89748 
1.6744 1.78405 1.89748 2.01191 1.6744 1.78405 1.89748 2.01191 2.12437 
1.6744 1.78405 1.89748 2.01191 2.12437 2.23222 1.6744 1.78405 1.89748 
2.01191 2.12437 2.23222 2.33343 1.6744 1.78405 1.89748 2.01191 2.12437 
2.23222 2.33343 2.42672 1.4672 1.35755 1.4672 1.24411 1.35755 1.4672 
1.12969 1.24411 1.35755 1.4672 1.01722 1.12969 1.24411 1.35755 1.4672 
0.909371 1.01722 1.12969 1.24411 1.35755 1.4672 0.808166 0.909371 1.01722 
1.12969 1.24411 1.35755 1.4672 0.714871 0.808166 0.909371 1.01722 1.12969 
1.24411 1.35755 1.4672 0.603812 0.57405 0.693022 0.540021 0.667908 0.792164 
0.500837 0.638778 0.773562 0.900726 0.455383 0.604649 0.751687 0.890581 1.01722 
0.402264 0.564217 0.725619 0.878514 1.01722 1.13912 0.339753 0.515737 0.694072 
0.863926 1.01722 1.15026 1.26302 0.265762 0.456853 0.655207 0.845941 1.01722 
1.16363 1.28529 1.38521 0.227158 0.312971 0.494626 0.494626 0.680215 0.770593 
1.01722 1.01722 1.01722 1.01722 2.12437 1.5708 1.36763 1.27109 1.2157 
2.64697 2.12437 1.77397 1.5708 1.44781 1.36763 2.82862 2.46138 2.12437 
1.8705 1.69378 1.5708 1.48273 2.91443 2.64697 2.371 2.12437 1.9259 
1.77397 1.65886 1.5708 1.75639 1.8563 1.87857 1.97796 1.99133 2.00248 
2.12437 2.12437 2.12437 2.12437 2.29565 2.27767 2.26308 2.25101 2.24087 
2.48639 2.44752 2.41597 2.38991 2.36803 2.34943 2.68474 2.62586 2.57738 
2.53694 2.50281 2.47368 2.44857 2.87583 2.80184 2.73933 2.68621 2.64076 
2.60157 2.56754 2.53778 5.86049 5.90139 5.97231 5.94739 6.02165 6.09275 
5.99927 6.07676 6.15015 6.21902 6.0579 6.13831 6.2135 0 0.0641696 
6.12418 6.20694 6.28319 0.069689 0.13304 0.190437 6.19903 0 0.0762451 
0.144876 0.206423 0.261531 0.310872 0 0.0841597 0.159004 0.225289 0.283913 
0.335793 0.381792 0.422692 5.86049 5.97231 5.90139 6.09275 6.02165 5.94739 
6.21902 6.15015 6.07676 5.99927 0.0641696 0 6.2135 6.13831 6.0579 
0.190437 0.13304 0.069689 6.28319 6.20694 6.12418 0.310872 0.261531 0.206423 
0.144876 0.0762451 6.28319 6.19903 0.422692 0.381792 0.335793 0.283913 0.225289 
0.159004 0.0841597 0 5.67937 5.70914 5.59016 5.74316 5.61528 5.49102 
5.78235 5.64441 5.50962 5.38246 5.8278 5.67854 5.5315 5.3926 5.26596 
5.88092 5.71897 5.55757 5.40467 5.26596 5.14407 5.94343 5.76745 5.58911 
5.41926 5.26596 5.13292 5.02016 6.01742 5.82633 5.62798 5.43724 5.26596 
5.11955 4.99789 4.89798 1.38521 1.28529 1.26302 1.16363 1.15026 1.13912 
1.01722 1.01722 1.01722 1.01722 0.845941 0.863926 0.878514 0.890581 0.900726 
0.655207 0.694072 0.725619 0.751687 0.773562 0.792164 0.456853 0.515737 0.564217 
0.604649 0.638778 0.667908 0.693022 0.265762 0.339753 0.402264 0.455383 0.500837 
0.540021 0.57405 0.603812 
