# vtk DataFile Version 4.1
vtk output
ASCII
DATASET POLYDATA
POINTS 1002 float
46.2557 96.8993 97.2845 49.784 97.7047 104.843 44.1068 103.559 94.3766 
44.727 106.871 104.045 51.0918 101.569 99.6084 49.0254 106.137 97.8788 
42.0109 95.2822 103.128 39.3284 101.383 102.503 52.9756 105.547 105.56 
47.2943 100.998 90.1999 44.8321 101.124 107.559 43.2879 97.4984 95.1203 
46.2944 97.5407 98.3445 46.4203 97.8787 99.5966 46.7869 97.7397 100.76 
47.3285 97.3609 101.609 47.921 96.9889 102.151 48.5191 96.6927 102.606 
49.09 96.6117 103.178 49.5113 96.8141 103.795 49.7322 97.2124 104.356 
46.5168 97.4226 97.4256 46.7764 97.9863 97.6598 47.0056 98.6373 97.9793 
47.2021 99.3933 98.3882 47.5352 100.087 98.7304 48.0909 100.585 99.0001 
48.7467 100.992 99.2798 49.4407 101.346 99.5564 50.283 101.498 99.634 
46.0351 96.9138 97.761 45.8033 96.9672 98.4431 45.561 96.8999 99.3332 
45.2889 96.542 100.264 44.9425 95.8198 100.888 44.3845 94.9525 101.219 
43.6119 94.4797 101.676 42.9003 94.5208 102.276 42.3768 94.8656 102.771 
46.3339 96.5413 96.4389 46.3331 96.2818 95.6403 46.3289 96.2401 94.864 
46.3355 96.5597 94.1095 46.4787 97.0771 93.2828 46.7833 97.6197 92.4276 
47.0047 98.4008 91.7122 47.1198 99.2833 91.1385 47.2043 100.161 90.6468 
46.0233 96.1506 96.6182 45.728 95.2302 96.0304 45.4938 94.0233 95.6107 
45.215 92.9676 95.391 44.7645 92.6569 95.1779 44.3382 93.3113 94.9557 
44.1143 94.6355 94.8377 43.9024 95.9004 94.8273 43.5863 96.8325 94.9225 
50.1613 98.043 104.535 50.3579 98.6379 104.228 50.4276 99.4992 103.921 
50.6661 100.246 103.572 51.0152 100.687 103.093 51.2353 100.94 102.425 
51.2999 101.115 101.709 51.3142 101.234 100.973 51.2343 101.406 100.262 
49.3248 97.1103 104.861 48.7045 96.5555 104.855 47.9223 96.0505 104.784 
47.0788 95.5997 104.616 46.2716 95.225 104.334 45.3655 95.1232 104.041 
44.4239 95.1343 103.823 43.52 95.1373 103.619 42.7073 95.1902 103.376 
50.0733 98.4041 105.096 50.4044 99.1669 105.361 50.7977 100.022 105.599 
51.2838 100.922 105.745 51.8618 101.751 105.804 52.4283 102.505 105.865 
52.8569 103.292 105.946 53.1184 104.134 105.949 53.1228 104.906 105.786 
49.4633 97.8788 105.326 49.081 98.0606 105.837 48.6655 98.2959 106.309 
48.1756 98.5823 106.789 47.5952 98.8572 107.275 47.0102 99.2714 107.531 
46.404 99.89 107.573 45.8217 100.422 107.589 45.2911 100.785 107.611 
44.2117 103.761 95.4234 44.3469 103.945 96.6413 44.4643 104.2 97.9021 
44.5321 104.56 99.0984 44.5431 104.997 100.203 44.5339 105.522 101.153 
44.4961 106.053 101.912 44.4686 106.472 102.647 44.5293 106.751 103.39 
44.3761 103.877 94.0987 44.689 104.198 93.9141 45.0869 104.52 93.8959 
45.5483 104.828 94.0901 46.0606 105.07 94.5369 46.6261 105.324 95.1433 
47.2037 105.636 95.7952 47.8107 105.91 96.4906 48.4328 106.058 97.2275 
43.8962 103.344 95.3424 43.6723 103.089 96.3979 43.3833 102.891 97.4935 
42.9149 102.773 98.5817 42.2774 102.644 99.5055 41.4885 102.513 100.16 
40.674 102.348 100.721 40.1246 102.02 101.345 39.7331 101.657 101.965 
44.198 103.513 93.2372 44.3283 103.478 92.1137 44.5172 103.493 90.987 
44.6641 103.438 89.9086 44.9579 103.286 89.1896 45.5466 103.011 89.1154 
46.1918 102.598 89.3905 46.6316 102.086 89.6361 46.986 101.518 89.8767 
43.903 103.165 94.0159 43.6798 102.687 93.7543 43.4241 102.157 93.6104 
43.1559 101.541 93.5679 42.9064 100.815 93.6159 42.7915 100.058 93.7897 
42.8482 99.3332 94.1029 43.0049 98.6024 94.4746 43.1493 97.9992 94.835 
45.289 107.069 103.555 45.8563 107.278 102.95 46.3742 107.506 102.289 
46.8737 107.66 101.579 47.3899 107.617 100.824 47.876 107.401 100.15 
48.2849 107.111 99.5376 48.6372 106.797 98.9263 48.8628 106.467 98.3864 
44.027 106.608 104.083 43.3728 106.233 104.051 42.7113 105.786 104.008 
42.1185 105.172 103.905 41.5659 104.494 103.701 41.0031 103.851 103.429 
40.4598 103.241 103.187 39.9961 102.641 102.963 39.6445 101.995 102.717 
45.3942 107 104.372 46.2042 107.06 104.685 47.0751 107.111 104.954 
47.9628 107.113 105.173 48.8819 107.004 105.326 49.864 106.807 105.415 
50.8717 106.58 105.49 51.7809 106.327 105.582 52.4787 105.994 105.616 
44.6346 106.671 104.648 44.6481 106.253 105.177 44.6714 105.669 105.625 
44.6324 104.992 106.03 44.602 104.328 106.497 44.5884 103.741 107.036 
44.552 103.201 107.551 44.6038 102.542 107.775 44.7292 101.8 107.708 
51.3698 101.857 99.239 51.387 102.335 98.971 51.2235 102.88 98.7846 
50.9671 103.502 98.6599 50.7203 104.135 98.5094 50.4649 104.705 98.3404 
50.1439 105.219 98.1888 49.7901 105.628 98.073 49.4271 105.919 97.9778 
51.8763 101.642 100.005 52.5732 101.85 100.508 53.1203 102.324 101.165 
53.6455 102.823 101.738 53.9774 103.354 102.338 54.1448 104.088 103.149 
54.1596 104.729 103.989 53.8907 105.05 104.649 53.4455 105.29 105.137 
50.4405 101.646 98.9402 49.8013 101.606 98.0462 49.3816 101.396 96.8775 
49.0191 101.12 95.5743 48.5963 100.969 94.3429 48.232 100.976 93.2552 
48.0073 101.001 92.1953 47.8571 100.992 91.2063 47.6479 100.991 90.5293 
49.5366 106.416 98.7635 50.136 106.747 99.5399 50.8358 107.077 100.25 
51.5297 107.328 100.991 52.141 107.394 101.851 52.5959 107.184 102.804 
52.882 106.794 103.671 52.9739 106.35 104.393 53.0084 105.944 105.022 
48.8142 105.772 96.9478 48.6083 105.41 95.8304 48.434 105.042 94.5465 
48.3095 104.719 93.1098 48.251 104.484 91.5941 48.2228 104.056 90.4541 
48.1634 103.297 89.9067 47.9673 102.495 89.8009 47.6393 101.76 89.9481 
41.3766 95.6291 103.208 40.7209 96.0611 103.266 40.0824 96.6391 103.204 
39.5263 97.2566 103.05 39.0368 97.8519 102.889 38.586 98.6308 102.782 
38.341 99.5244 102.775 38.4163 100.283 102.771 38.8539 100.845 102.677 
42.0196 95.647 103.645 42.0501 96.0749 104.222 42.1657 96.5796 104.799 
42.3976 97.2408 105.242 42.6977 97.9668 105.71 43.0456 98.5741 106.243 
43.4319 99.2055 106.676 43.8855 99.894 107.029 44.3866 100.526 107.31 
41.6125 95.1715 102.624 41.3364 95.204 101.979 41.2694 95.4846 101.298 
41.5393 96.0808 100.759 42.0479 96.8132 100.183 42.5071 97.2665 99.1605 
42.8422 97.3419 97.8648 43.0937 97.3507 96.7172 43.2361 97.3857 95.837 
39.175 101.508 103.181 39.2438 101.585 104.021 39.5088 101.555 104.898 
39.9206 101.463 105.671 40.4064 101.3 106.408 40.98 101.139 107.009 
41.8274 101.091 107.273 42.9364 101.11 107.309 44.0087 101.112 107.378 
39.3316 100.94 101.998 39.4483 100.546 101.449 39.712 100.176 100.82 
40.1792 99.8149 100.179 40.8431 99.453 99.497 41.5283 99.1063 98.6971 
42.1072 98.79 97.7289 42.613 98.4341 96.7532 42.9877 97.9868 95.8667 
52.4992 105.367 106.05 51.7159 105.015 106.38 50.7152 104.528 106.617 
49.6869 104.047 107.024 48.8052 103.585 107.597 48.011 103.089 108.151 
47.0825 102.591 108.513 46.1409 102.077 108.355 45.4316 101.59 107.953 
46.6968 100.49 90.3377 45.9873 99.9858 90.5904 45.3007 99.4593 90.9879 
44.7108 98.7205 91.3242 44.205 97.9194 91.4848 43.9142 97.4382 91.9845 
43.8146 97.2821 92.8318 43.6987 97.293 93.6017 43.495 97.3359 94.3395 
46.5634 98.0223 98.6077 46.9024 98.4867 98.9423 46.7911 98.2365 99.9154 
47.1986 99.113 99.3251 47.1892 98.725 100.251 47.223 98.1323 101.04 
47.5227 99.7974 99.6448 47.535 99.4389 100.571 47.5822 98.8483 101.333 
47.7646 97.9584 101.833 48.0425 100.359 99.8836 47.9674 100.106 100.771 
47.9275 99.6755 101.607 48.1038 98.8328 102.165 48.3964 97.739 102.394 
48.7149 100.84 100.153 48.6295 100.6 100.961 48.4773 100.317 101.78 
48.4743 99.7043 102.485 48.7194 98.7158 102.796 48.9808 97.5933 102.91 
49.4437 101.27 100.382 49.4193 101.094 101.182 49.3065 100.837 101.907 
49.1585 100.428 102.638 49.1226 99.6968 103.122 49.2761 98.6936 103.281 
49.4878 97.6064 103.468 50.3061 101.458 100.421 50.3097 101.352 101.199 
50.2841 101.144 101.907 50.162 100.876 102.614 49.9289 100.429 103.209 
49.7676 99.6626 103.526 49.8373 98.6512 103.739 49.9112 97.7438 104.026 
46.6281 97.1286 96.5366 46.6819 96.9782 95.6852 46.9092 97.8133 96.6892 
46.6029 97.1652 94.9251 46.9602 97.8046 95.8478 47.1002 98.6705 97.0392 
46.5387 97.6448 94.1428 46.8781 98.1314 95.0456 47.1902 98.7922 96.1866 
47.2933 99.5732 97.4964 46.7559 98.1208 93.2636 46.8753 98.599 94.186 
47.2354 99.0511 95.2917 47.5 99.6712 96.6156 47.68 100.259 97.8521 
47.1302 98.622 92.37 47.1672 99.0197 93.3067 47.3892 99.3838 94.3751 
47.7393 99.7686 95.6544 47.9918 100.268 96.9519 48.2749 100.708 98.1281 
47.3748 99.3399 91.6303 47.5037 99.5435 92.4687 47.6755 99.79 93.5125 
47.9853 100.012 94.6871 48.3285 100.328 95.9944 48.5922 100.743 97.2635 
48.9354 101.099 98.4549 47.5202 100.174 91.0451 47.712 100.247 91.7742 
47.8892 100.338 92.7728 48.1654 100.411 93.8568 48.5448 100.561 95.0594 
48.8896 100.87 96.384 49.189 101.208 97.6612 49.6376 101.438 98.7831 
47.9176 101.722 90.4967 48.0771 102.436 90.7142 48.0478 101.699 91.4854 
48.1682 103.177 91.2044 48.16 102.41 91.9844 48.206 101.688 92.67 
48.3271 103.798 92.0205 48.3289 103.072 92.6511 48.3981 102.386 93.3088 
48.5206 101.615 93.836 48.5252 104.251 93.2353 48.6228 103.614 93.5847 
48.6816 103.002 94.1251 48.8343 102.292 94.6383 48.9975 101.582 95.0475 
48.7061 104.703 94.6105 48.9111 104.17 94.8117 49.0471 103.574 95.1624 
49.2141 102.951 95.5911 49.4227 102.256 95.9354 49.4947 101.726 96.3373 
48.9303 105.128 95.9031 49.1925 104.715 96.0612 49.4227 104.173 96.2974 
49.6488 103.593 96.5686 49.8954 102.943 96.8192 50.0453 102.331 97.1002 
50.0067 101.9 97.5408 49.1805 105.521 97.0377 49.4969 105.182 97.159 
49.7947 104.706 97.3281 50.0651 104.161 97.5202 50.3275 103.564 97.6929 
50.5766 102.92 97.8601 50.7082 102.366 98.1295 50.6608 101.942 98.5171 
52.0051 102.121 99.7419 51.8843 102.768 99.6006 52.5179 102.58 100.399 
51.6496 103.433 99.5211 52.3628 103.364 100.32 53.0501 103.152 101.096 
51.4213 104.129 99.3829 52.2002 104.127 100.198 52.9271 103.999 101.015 
53.5348 103.73 101.708 51.1771 104.792 99.2107 51.9817 104.873 100.029 
52.731 104.831 100.878 53.3584 104.683 101.679 53.8706 104.433 102.354 
50.8378 105.364 99.0623 51.6288 105.528 99.8942 52.3845 105.575 100.717 
53.0647 105.536 101.534 53.6994 105.437 102.286 54.0696 105.147 103.087 
50.4129 105.827 98.9452 51.1606 106.05 99.7756 51.9181 106.204 100.571 
[...]
POINT_DATA 1002
SCALARS Color_Map_Phi float
LOOKUP_TABLE default
6.28319 3.14159 6.28319 3.14159 4.71239 4.71239 1.5708 1.5708 3.69517 
5.72961 2.58802 0.553574 6.28319 6.28319 6.28319 6.28319 3.14159 3.14159 
3.14159 3.14159 3.14159 6.1053 5.8988 5.67687 5.45995 5.26596 5.10322 
4.97131 4.86569 4.78095 0.177881 0.384387 0.606312 0.823235 1.01722 1.17997 
1.31187 1.4175 1.50223 6.18928 6.10703 6.03531 5.97283 5.91832 5.87061 
5.82869 5.79168 5.75886 0.0939024 0.176153 0.247873 0.310351 0.364864 0.412573 
0.454497 0.491504 0.524326 3.31947 3.52598 3.7479 3.96483 4.15881 4.32156 
4.45346 4.55909 4.64383 2.96371 2.75721 2.53528 2.31836 2.12437 1.96162 
1.82972 1.72409 1.63936 3.2355 3.31775 3.38947 3.45194 3.50646 3.55417 
3.59609 3.6331 3.66592 3.04769 2.96544 2.89372 2.83124 2.77673 2.72902 
2.6871 2.65009 2.61727 6.28319 6.28319 6.28319 6.28319 3.14159 3.14159 
3.14159 3.14159 3.14159 6.1053 5.8988 5.67687 5.45995 5.26596 5.10322 
4.97131 4.86569 4.78095 0.177881 0.384387 0.606312 0.823235 1.01722 1.17997 
1.31187 1.4175 1.50223 6.18928 6.10703 6.03531 5.97283 5.91832 5.87061 
5.82869 5.79168 5.75886 0.0939024 0.176153 0.247873 0.310351 0.364864 0.412573 
0.454497 0.491504 0.524326 3.31947 3.52598 3.7479 3.96483 4.15881 4.32156 
4.45346 4.55909 4.64383 2.96371 2.75721 2.53528 2.31836 2.12437 1.96162 
1.82972 1.72409 1.63936 3.2355 3.31775 3.38947 3.45194 3.50646 3.55417 
3.59609 3.6331 3.66592 3.04769 2.96544 2.89372 2.83124 2.77673 2.72902 
2.6871 2.65009 2.61727 4.71239 4.71239 4.71239 4.71239 4.71239 4.71239 
4.71239 4.71239 4.71239 4.60879 4.49914 4.3857 4.27128 4.15881 4.05096 
3.94976 3.85646 3.77161 4.81599 4.92564 5.03907 5.1535 5.26596 5.37381 
5.47502 5.56831 5.65317 4.60879 4.49914 4.3857 4.27128 4.15881 4.05096 
3.94976 3.85646 3.77161 4.81599 4.92564 5.03907 5.1535 5.26596 5.37381 
5.47502 5.56831 5.65317 1.5708 1.5708 1.5708 1.5708 1.5708 1.5708 
1.5708 1.5708 1.5708 1.6744 1.78405 1.89748 2.01191 2.12437 2.23222 
2.33343 2.42672 2.51157 1.4672 1.35755 1.24411 1.12969 1.01722 0.909371 
0.808166 0.714871 0.63002 1.6744 1.78405 1.89748 2.01191 2.12437 2.23222 
2.33343 2.42672 2.51157 1.4672 1.35755 1.24411 1.12969 1.01722 0.909371 
0.808166 0.714871 0.63002 3.60077 3.49669 3.38395 3.26458 3.14159 3.01861 
2.89924 2.78649 2.68241 5.82401 5.92808 6.04083 6.1602 6.28319 0.122983 
0.242354 0.355101 0.459179 6.05603 5.78856 5.97021 5.51259 5.60297 5.78856 
5.26596 5.26596 5.26596 5.26596 5.06749 5.0121 4.91556 4.71239 4.15881 
4.91556 4.83537 4.71239 4.50922 4.15881 3.63622 4.80045 4.71239 4.58941 
4.41268 4.15881 3.82181 3.45456 4.71239 4.62433 4.50922 4.35729 4.15881 
3.91219 3.63622 3.36875 6.01742 5.94343 5.82633 5.88092 5.76745 5.62798 
5.8278 5.71897 5.58911 5.43724 5.78235 5.67854 5.55757 5.41926 5.26596 
5.74316 5.64441 5.5315 5.40467 5.26596 5.11955 5.70914 5.61528 5.50962 
5.3926 5.26596 5.13292 4.99789 5.67937 5.59016 5.49102 5.38246 5.26596 
5.14407 5.02016 4.89798 5.56831 5.47502 5.47502 5.37381 5.37381 5.37381 
5.26596 5.26596 5.26596 5.26596 5.1535 5.1535 5.1535 5.1535 5.1535 
5.03907 5.03907 5.03907 5.03907 5.03907 5.03907 4.92564 4.92564 4.92564 
4.92564 4.92564 4.92564 4.92564 4.81599 4.81599 4.81599 4.81599 4.81599 
4.81599 4.81599 4.81599 4.60879 4.60879 4.49914 4.60879 4.49914 4.3857 
4.60879 4.49914 4.3857 4.27128 4.60879 4.49914 4.3857 4.27128 4.15881 
4.60879 4.49914 4.3857 4.27128 4.15881 4.05096 4.60879 4.49914 4.3857 
4.27128 4.15881 4.05096 3.94976 4.60879 4.49914 4.3857 4.27128 4.15881 
4.05096 3.94976 3.85646 4.5268 4.40462 4.42689 4.28071 4.29185 4.30523 
4.15881 4.15881 4.15881 4.15881 4.04232 4.03217 4.02011 4.00552 3.98753 
3.93376 3.91515 3.89328 3.86721 3.83566 3.7968 3.83461 3.8095 3.78037 
3.74624 3.70581 3.65733 3.59845 3.7454 3.71564 3.68161 3.64243 3.59698 
3.54386 3.48135 3.40735 3.56428 3.45246 3.52338 3.33203 3.40312 3.47739 
3.20576 3.27463 3.34802 3.42551 3.07742 3.14159 3.21128 3.28647 3.36688 
2.95116 3.00855 3.0719 3.14159 3.21784 3.3006 2.83072 2.88006 2.93517 
2.99672 3.06535 3.14159 3.22575 2.7189 2.7598 2.8058 2.85768 2.9163 
2.98259 3.05743 3.14159 3.56428 3.52338 3.45246 3.47739 3.40312 3.33203 
3.42551 3.34802 3.27463 3.20576 3.36688 3.28647 3.21128 3.14159 3.07742 
3.3006 3.21784 3.14159 3.0719 3.00855 2.95116 3.22575 3.14159 3.06535 
2.99672 2.93517 2.88006 2.83072 3.14159 3.05743 2.98259 2.9163 2.85768 
2.8058 2.7598 2.7189 4.5268 4.42689 4.40462 4.30523 4.29185 4.28071 
4.15881 4.15881 4.15881 4.15881 3.98753 4.00552 4.02011 4.03217 4.04232 
3.7968 3.83566 3.86721 3.89328 3.91515 3.93376 3.59845 3.65733 3.70581 
3.74624 3.78037 3.8095 3.83461 3.40735 3.48135 3.54386 3.59698 3.64243 
3.68161 3.71564 3.7454 4.71239 4.80045 4.62433 4.91556 4.71239 4.50922 
5.06749 4.83537 4.58941 4.35729 5.26596 5.0121 4.71239 4.41268 4.15881 
5.51259 5.26596 4.91556 4.50922 4.15881 3.91219 5.78856 5.60297 5.26596 
4.71239 4.15881 3.82181 3.63622 6.05603 5.97021 5.78856 5.26596 4.15881 
3.63622 3.45456 3.36875 0.227158 0.494626 0.312971 0.770593 0.680215 0.494626 
1.01722 1.01722 1.01722 1.01722 1.2157 1.27109 1.36763 1.5708 2.12437 
1.36763 1.44781 1.5708 1.77397 2.12437 2.64697 1.48273 1.5708 1.69378 
1.8705 2.12437 2.46138 2.82862 1.5708 1.65886 1.77397 1.9259 2.12437 
2.371 2.64697 2.91443 1.75639 1.87857 1.8563 2.00248 1.99133 1.97796 
2.12437 2.12437 2.12437 2.12437 2.24087 2.25101 2.26308 2.27767 2.29565 
2.34943 2.36803 2.38991 2.41597 2.44752 2.48639 2.44857 2.47368 2.50281 
2.53694 2.57738 2.62586 2.68474 2.53778 2.56754 2.60157 2.64076 2.68621 
2.73933 2.80184 2.87583 1.6744 1.6744 1.78405 1.6744 1.78405 1.89748 
1.6744 1.78405 1.89748 2.01191 1.6744 1.78405 1.89748 2.01191 2.12437 
1.6744 1.78405 1.89748 2.01191 2.12437 2.23222 1.6744 1.78405 1.89748 
2.01191 2.12437 2.23222 2.33343 1.6744 1.78405 1.89748 2.01191 2.12437 
2.23222 2.33343 2.42672 1.4672 1.35755 1.4672 1.24411 1.35755 1.4672 
1.12969 1.24411 1.35755 1.4672 1.01722 1.12969 1.24411 1.35755 1.4672 
0.909371 1.01722 1.12969 1.24411 1.35755 1.4672 0.808166 0.909371 1.01722 
1.12969 1.24411 1.35755 1.4672 0.714871 0.808166 0.909371 1.01722 1.12969 
1.24411 1.35755 1.4672 0.603812 0.57405 0.693022 0.540021 0.667908 0.792164 
0.500837 0.638778 0.773562 0.900726 0.455383 0.604649 0.751687 0.890581 1.01722 
0.402264 0.564217 0.725619 0.878514 1.01722 1.13912 0.339753 0.515737 0.694072 
0.863926 1.01722 1.15026 1.26302 0.265762 0.456853 0.655207 0.845941 1.01722 
1.16363 1.28529 1.38521 0.227158 0.312971 0.494626 0.494626 0.680215 0.770593 
1.01722 1.01722 1.01722 1.01722 2.12437 1.5708 1.36763 1.27109 1.2157 
2.64697 2.12437 1.77397 1.5708 1.44781 1.36763 2.82862 2.46138 2.12437 
1.8705 1.69378 1.5708 1.48273 2.91443 2.64697 2.371 2.12437 1.9259 
1.77397 1.65886 1.5708 1.75639 1.8563 1.87857 1.97796 1.99133 2.00248 
2.12437 2.12437 2.12437 2.12437 2.29565 2.27767 2.26308 2.25101 2.24087 
2.48639 2.44752 2.41597 2.38991 2.36803 2.34943 2.68474 2.62586 2.57738 
2.53694 2.50281 2.47368 2.44857 2.87583 2.80184 2.73933 2.68621 2.64076 
2.60157 2.56754 2.53778 5.86049 5.90139 5.97231 5.94739 6.02165 6.09275 
5.99927 6.07676 6.15015 6.21902 6.0579 6.13831 6.2135 0 0.0641696 
6.12418 6.20694 6.28319 0.069689 0.13304 0.190437 6.19903 0 0.0762451 
0.144876 0.206423 0.261531 0.310872 0 0.0841597 0.159004 0.225289 0.283913 
0.335793 0.381792 0.422692 5.86049 5.97231 5.90139 6.09275 6.02165 5.94739 
6.21902 6.15015 6.07676 5.99927 0.0641696 0 6.2135 6.13831 6.0579 
0.190437 0.13304 0.069689 6.28319 6.20694 6.12418 0.310872 0.261531 0.206423 
0.144876 0.0762451 6.28319 6.19903 0.422692 0.381792 0.335793 0.283913 0.225289 
0.159004 0.0841597 0 5.67937 5.70914 5.59016 5.74316 5.61528 5.49102 
5.78235 5.64441 5.50962 5.38246 5.8278 5.67854 5.5315 5.3926 5.26596 
5.88092 5.71897 5.55757 5.40467 5.26596 5.14407 5.94343 5.76745 5.58911 
5.41926 5.26596 5.13292 5.02016 6.01742 5.82633 5.62798 5.43724 5.26596 
5.11955 4.99789 4.89798 1.38521 1.28529 1.26302 1.16363 1.15026 1.13912 
1.01722 1.01722 1.01722 1.01722 0.845941 0.863926 0.878514 0.890581 0.900726 
0.655207 0.694072 0.725619 0.751687 0.773562 0.792164 0.456853 0.515737 0.564217 
0.604649 0.638778 0.667908 0.693022 0.265762 0.339753 0.402264 0.455383 0.500837 
0.540021 0.57405 0.603812 
