# vtk DataFile Version 4.1
vtk output
ASCII
DATASET POLYDATA
POINTS 1002 float
46.0998 96.0752 96.1385 49.2401 99.1276 104.748 44.3734 103.658 91.3549 
45.9272 105.626 102.127 51.047 101.858 99.4917 49.6315 104.76 96.7093 
41.544 98.2899 102.302 40.141 102.169 100.051 53.8671 104.424 105.331 
48.1653 99.7459 90.7355 44.429 102.175 107.752 43.1234 96.8682 93.5976 
46.0167 97.0525 96.7122 46.0222 97.9801 97.4722 46.1189 98.7381 98.419 
46.2679 99.3622 99.558 46.4771 99.8363 100.817 46.8565 100.002 102.045 
47.4387 99.8978 103.09 48.1095 99.6537 103.817 48.7303 99.3503 104.307 
46.3233 96.7929 96.2777 46.6442 97.5627 96.4704 46.9875 98.3767 96.707 
47.4014 99.1531 97.0315 47.9086 99.8501 97.4282 48.4635 100.473 97.8712 
49.034 101.035 98.3946 49.6241 101.499 98.9368 50.2888 101.773 99.3103 
45.8515 96.0681 96.3848 45.5709 96.2084 96.7692 45.2663 96.4899 97.3419 
44.9264 96.8595 98.0463 44.4737 97.1978 98.7425 43.9086 97.4251 99.4719 
43.3786 97.634 100.273 42.8132 97.9033 101.002 42.1422 98.145 101.644 
46.2647 95.6307 95.6697 46.4004 95.3971 95.1634 46.6189 95.3856 94.7098 
46.9445 95.6302 94.2222 47.3358 96.0853 93.5921 47.7224 96.6804 92.9141 
47.9938 97.3939 92.2492 48.0994 98.1852 91.5967 48.1329 98.9863 91.0949 
46.0995 94.9824 95.8159 46.2071 93.6075 95.6293 46.1512 92.4006 95.5083 
45.7014 92.0805 95.1879 45.241 92.6482 94.7352 44.8909 93.6488 94.3439 
44.4535 94.6696 94.0096 43.9097 95.5291 93.7303 43.4607 96.2209 93.6022 
49.6969 99.3548 104.407 50.0515 99.7827 104.105 50.3477 100.257 103.778 
50.6501 100.669 103.394 50.9193 101.016 102.917 51.1176 101.222 102.27 
51.1958 101.35 101.518 51.132 101.557 100.792 51.0445 101.763 100.122 
48.4272 99.1073 104.851 47.563 99.0729 104.916 46.7105 98.9394 104.816 
45.897 98.757 104.59 45.086 98.6049 104.343 44.2769 98.4767 104.03 
43.5123 98.3841 103.592 42.7618 98.36 103.126 42.057 98.343 102.693 
49.9872 99.1808 105.044 50.7484 99.4513 105.43 51.4972 99.8465 105.737 
52.1862 100.32 105.956 52.8171 100.893 106.094 53.4068 101.581 106.123 
53.8115 102.381 106.044 53.9787 103.143 105.859 53.9848 103.821 105.599 
49.1349 99.0542 105.313 48.9099 99.1412 105.95 48.5495 99.3539 106.534 
48.0671 99.593 107.024 47.5031 99.8643 107.51 46.9128 100.24 107.906 
46.2526 100.745 108.076 45.5388 101.309 108.1 44.9038 101.813 107.989 
44.431 103.863 92.1036 44.5172 104.017 93.1194 44.5966 104.172 94.345 
44.6699 104.378 95.634 44.8153 104.604 96.9701 45.0226 104.86 98.2432 
45.2348 105.137 99.3487 45.451 105.371 100.36 45.6722 105.536 101.308 
44.8062 103.925 91.1308 45.2956 104.185 90.9794 45.8065 104.47 91.0227 
46.2837 104.732 91.3744 46.761 104.831 92.084 47.3309 104.768 93.0832 
47.9347 104.732 94.1602 48.5046 104.773 95.1498 49.0698 104.785 96.0122 
43.9998 103.517 92.0367 43.647 103.338 92.9263 43.2586 103.181 93.9117 
42.7965 103.02 94.9118 42.3373 102.842 95.9675 41.8733 102.681 96.9913 
41.3719 102.529 97.8443 40.8531 102.423 98.62 40.4302 102.316 99.3699 
44.5762 103.582 90.5452 44.7124 103.512 89.6617 44.8842 103.378 88.9749 
45.3661 103.048 88.8831 46.043 102.589 89.2556 46.5586 102.126 89.5989 
47.0034 101.596 89.8876 47.4569 100.996 90.2282 47.8442 100.352 90.4971 
44.0928 103.283 91.1875 43.7728 102.793 91.1321 43.4238 102.202 91.1669 
43.1413 101.508 91.346 42.9074 100.684 91.6576 42.7431 99.7269 92.027 
42.735 98.8001 92.4214 42.8503 98.0458 92.8644 42.9853 97.4148 93.2651 
46.3401 105.849 101.671 46.7541 106.055 101.17 47.179 106.19 100.583 
47.6864 106.203 99.9113 48.282 106.09 99.2991 48.7901 105.863 98.8002 
49.1253 105.58 98.2593 49.3596 105.29 97.6954 49.5198 105.012 97.1906 
45.3393 105.365 102.076 44.744 105.062 101.958 44.0953 104.726 101.79 
43.374 104.389 101.604 42.6646 104.044 101.406 42.0456 103.654 101.193 
41.5084 103.218 100.96 41.0269 102.785 100.677 40.5646 102.441 100.354 
46.5053 105.797 102.596 47.212 105.911 103.044 48.0107 105.948 103.48 
48.896 105.959 103.95 49.8525 105.923 104.386 50.8529 105.762 104.712 
51.8165 105.518 104.976 52.6669 105.226 105.177 53.3458 104.857 105.276 
45.8368 105.524 102.857 45.7308 105.352 103.553 45.638 105.031 104.2 
45.5298 104.636 104.827 45.3412 104.276 105.476 45.139 103.863 106.085 
44.9678 103.392 106.577 44.764 102.985 107.05 44.5673 102.602 107.473 
51.5485 101.906 99.1188 51.9703 102.024 98.6503 52.1858 102.349 98.1732 
52.2331 102.807 97.7242 52.0583 103.341 97.421 51.6399 103.855 97.2708 
51.1172 104.195 97.1097 50.5777 104.397 96.9345 50.0626 104.578 96.8268 
51.8472 101.849 100.002 52.6633 101.846 100.571 53.3345 101.977 101.233 
53.9205 102.23 101.875 54.487 102.55 102.459 54.8853 103.018 103.105 
55.0048 103.555 103.939 54.8143 103.948 104.674 54.3991 104.218 105.098 
50.6346 101.786 98.6858 50.2544 101.566 97.6489 49.8175 101.314 96.4868 
49.4764 101.016 95.4153 49.3104 100.608 94.4157 49.1459 100.213 93.3826 
49.0053 99.9189 92.4057 48.9244 99.6739 91.566 48.6633 99.6027 90.9694 
50.1201 104.877 97.6502 50.6249 104.991 98.6219 51.183 105.132 99.577 
51.8142 105.33 100.493 52.3914 105.445 101.442 52.8879 105.352 102.41 
53.4255 105.256 103.331 53.832 105.131 104.193 53.9591 104.838 104.872 
49.3759 104.507 95.8249 49.1582 104.232 94.8422 49.0258 103.918 93.8035 
48.8989 103.574 92.7636 48.8484 103.239 91.7844 48.9228 102.788 91.0087 
48.9624 102.065 90.5371 48.8158 101.2 90.4194 48.5479 100.397 90.4992 
40.9639 98.4016 102.439 40.4005 98.635 102.567 39.8271 98.9031 102.549 
39.2693 99.1827 102.328 38.9944 99.7092 102.036 39.0944 100.381 101.66 
39.3507 100.943 101.126 39.568 101.407 100.611 39.7866 101.847 100.26 
41.3488 98.4414 103.226 41.3633 98.6142 104.151 41.4708 98.8405 104.975 
41.5881 99.1082 105.779 41.8063 99.4342 106.545 42.2139 99.8873 107.087 
42.7536 100.468 107.392 43.3072 101.102 107.597 43.8572 101.688 107.723 
41.5013 98.1396 101.488 41.5294 97.9574 100.626 41.6164 97.7485 99.6906 
41.8792 97.5225 98.6467 42.2536 97.2562 97.5458 42.5221 96.9822 96.5224 
42.7319 96.7818 95.627 42.9098 96.6988 94.8438 43.044 96.7298 94.1703 
40.2237 102.116 100.927 40.3518 102.079 101.968 40.5007 102.148 103.028 
40.8362 102.196 103.975 41.3007 102.186 104.845 41.751 102.215 105.728 
42.3294 102.255 106.478 43.0372 102.235 107.001 43.7166 102.208 107.419 
39.9518 101.962 99.3679 39.973 101.574 98.6816 40.1969 101.051 97.9408 
40.5117 100.505 97.1525 40.937 99.9128 96.4132 41.4536 99.2563 95.7352 
41.9012 98.644 95.0733 42.3231 98.0498 94.4716 42.7535 97.435 93.9901 
53.3693 104.281 105.692 52.7524 104.159 106.141 51.9419 103.957 106.552 
50.9786 103.696 106.834 49.8964 103.487 107.103 48.6898 103.261 107.349 
47.4827 102.938 107.53 46.3696 102.62 107.692 45.3421 102.395 107.81 
47.5397 99.4851 90.9433 46.9285 99.0756 91.1944 46.4 98.495 91.3286 
45.8679 97.9132 91.4476 45.2852 97.4481 91.7078 44.6382 97.0266 91.9347 
43.9837 96.6854 92.071 43.5436 96.5745 92.4124 43.3296 96.6742 92.9978 
46.3368 97.7117 96.9516 46.7051 98.4408 97.2311 46.3924 98.5783 97.7742 
47.1389 99.1477 97.5873 46.8227 99.2192 98.1591 46.5251 99.2929 98.8171 
47.6493 99.8172 98.0342 47.3567 99.8209 98.6549 47.018 99.8797 99.3488 
46.7419 99.8755 100.101 48.1859 100.461 98.5273 47.9358 100.424 99.2412 
47.6459 100.419 99.9693 47.351 100.374 100.75 47.1203 100.197 101.439 
48.7809 101.002 99.0452 48.5707 100.952 99.8399 48.3713 100.868 100.615 
48.1461 100.72 101.343 47.9415 100.468 102.018 47.7272 100.152 102.569 
49.4702 101.408 99.5582 49.3613 101.298 100.338 49.2267 101.198 101.162 
49.0562 100.988 101.845 48.8831 100.662 102.429 48.6941 100.301 102.945 
48.4427 99.9382 103.385 50.2265 101.676 99.939 50.2527 101.49 100.655 
50.2255 101.355 101.459 50.0648 101.216 102.197 49.8646 100.902 102.752 
49.6449 100.513 103.211 49.4059 100.079 103.594 49.1162 99.649 103.942 
46.5082 96.4942 95.761 46.6905 96.3879 95.2256 46.8436 97.3699 95.9099 
46.9441 96.4424 94.7369 47.0732 97.3154 95.3587 47.1935 98.2925 96.1294 
47.2734 96.6896 94.1994 47.3807 97.4066 94.8491 47.4914 98.2832 95.5825 
47.6483 99.1435 96.456 47.6452 97.129 93.5573 47.7062 97.689 94.277 
47.8731 98.3722 95.0389 47.9832 99.1575 95.8971 48.1968 99.8681 96.861 
48.0697 97.6583 92.8577 48.0197 98.1162 93.6164 48.1936 98.6138 94.3954 
48.3185 99.28 95.2774 48.4659 99.9639 96.2874 48.7719 100.543 97.3551 
48.4431 98.2223 92.0982 48.4262 98.5596 92.9012 48.4759 98.9563 93.7348 
48.6254 99.4928 94.6142 48.7082 100.154 95.6146 48.994 100.691 96.7529 
49.3567 101.145 97.9111 48.6179 98.8811 91.4346 48.7813 99.0601 92.1628 
48.7909 99.3879 93.0698 48.922 99.7974 94.0119 49.015 100.355 94.9803 
49.2025 100.855 96.031 49.6086 101.218 97.2296 49.954 101.574 98.3936 
48.8882 100.383 90.9609 49.0524 101.267 91.1318 49.0778 100.511 91.7208 
49.1664 102.13 91.5174 49.2745 101.368 92.048 49.2568 100.704 92.6502 
49.2283 102.78 92.1462 49.5034 102.141 92.579 49.5615 101.456 93.0818 
49.486 100.951 93.755 49.3023 103.236 93.0088 49.6935 102.795 93.3286 
49.8998 102.16 93.7273 49.8743 101.616 94.2976 49.7211 101.275 94.9183 
49.4352 103.613 94.0367 49.8665 103.309 94.2976 50.2251 102.813 94.5798 
50.364 102.238 95.0088 50.2713 101.842 95.5593 50.0666 101.545 96.0215 
49.5848 103.955 95.0491 50.0596 103.696 95.3052 50.5313 103.35 95.5181 
50.8899 102.808 95.7781 50.9769 102.325 96.2194 50.8276 101.985 96.6916 
50.5772 101.704 97.1359 49.7941 104.272 95.9772 50.3023 104.045 96.1592 
50.829 103.798 96.3684 51.3216 103.354 96.5311 51.6172 102.802 96.8084 
51.6233 102.358 97.2501 51.4337 102.018 97.7162 51.0952 101.824 98.2102 
52.3468 101.969 99.6245 52.6449 102.256 99.179 53.0163 102.136 100.228 
52.7372 102.761 98.7058 53.1529 102.639 99.8168 53.5376 102.446 100.925 
52.6666 103.324 98.3297 53.1695 103.275 99.3978 53.5811 103.106 100.596 
54.0459 102.858 101.628 52.3345 103.855 98.1581 52.9429 103.827 99.1343 
53.4741 103.764 100.284 53.9712 103.608 101.421 54.4961 103.374 102.294 
51.8097 104.284 98.0491 52.4403 104.275 99.0208 53.042 104.277 100.076 
53.6225 104.244 101.199 54.2017 104.122 102.179 54.7336 103.933 103.017 
[...]
POINT_DATA 1002
SCALARS Color_Map_Phi float
LOOKUP_TABLE default
6.28319 3.14159 6.28319 3.14159 4.71239 4.71239 1.5708 1.5708 3.69517 
5.72961 2.58802 0.553574 6.28319 6.28319 6.28319 6.28319 3.14159 3.14159 
3.14159 3.14159 3.14159 6.1053 5.8988 5.67687 5.45995 5.26596 5.10322 
4.97131 4.86569 4.78095 0.177881 0.384387 0.606312 0.823235 1.01722 1.17997 
1.31187 1.4175 1.50223 6.18928 6.10703 6.03531 5.97283 5.91832 5.87061 
5.82869 5.79168 5.75886 0.0939024 0.176153 0.247873 0.310351 0.364864 0.412573 
0.454497 0.491504 0.524326 3.31947 3.52598 3.7479 3.96483 4.15881 4.32156 
4.45346 4.55909 4.64383 2.96371 2.75721 2.53528 2.31836 2.12437 1.96162 
1.82972 1.72409 1.63936 3.2355 3.31775 3.38947 3.45194 3.50646 3.55417 
3.59609 3.6331 3.66592 3.04769 2.96544 2.89372 2.83124 2.77673 2.72902 
2.6871 2.65009 2.61727 6.28319 6.28319 6.28319 6.28319 3.14159 3.14159 
3.14159 3.14159 3.14159 6.1053 5.8988 5.67687 5.45995 5.26596 5.10322 
4.97131 4.86569 4.78095 0.177881 0.384387 0.606312 0.823235 1.01722 1.17997 
1.31187 1.4175 1.50223 6.18928 6.10703 6.03531 5.97283 5.91832 5.87061 
5.82869 5.79168 5.75886 0.0939024 0.176153 0.247873 0.310351 0.364864 0.412573 
0.454497 0.491504 0.524326 3.31947 3.52598 3.7479 3.96483 4.15881 4.32156 
4.45346 4.55909 4.64383 2.96371 2.75721 2.53528 2.31836 2.12437 1.96162 
1.82972 1.72409 1.63936 3.2355 3.31775 3.38947 3.45194 3.50646 3.55417 
3.59609 3.6331 3.66592 3.04769 2.96544 2.89372 2.83124 2.77673 2.72902 
2.6871 2.65009 2.61727 4.71239 4.71239 4.71239 4.71239 4.71239 4.71239 
4.71239 4.71239 4.71239 4.60879 4.49914 4.3857 4.27128 4.15881 4.05096 
3.94976 3.85646 3.77161 4.81599 4.92564 5.03907 5.1535 5.26596 5.37381 
5.47502 5.56831 5.65317 4.60879 4.49914 4.3857 4.27128 4.15881 4.05096 
3.94976 3.85646 3.77161 4.81599 4.92564 5.03907 5.1535 5.26596 5.37381 
5.47502 5.56831 5.65317 1.5708 1.5708 1.5708 1.5708 1.5708 1.5708 
1.5708 1.5708 1.5708 1.6744 1.78405 1.89748 2.01191 2.12437 2.23222 
2.33343 2.42672 2.51157 1.4672 1.35755 1.24411 1.12969 1.01722 0.909371 
0.808166 0.714871 0.63002 1.6744 1.78405 1.89748 2.01191 2.12437 2.23222 
2.33343 2.42672 2.51157 1.4672 1.35755 1.24411 1.12969 1.01722 0.909371 
0.808166 0.714871 0.63002 3.60077 3.49669 3.38395 3.26458 3.14159 3.01861 
2.89924 2.78649 2.68241 5.82401 5.92808 6.04083 6.1602 6.28319 0.122983 
0.242354 0.355101 0.459179 6.05603 5.78856 5.97021 5.51259 5.60297 5.78856 
5.26596 5.26596 5.26596 5.26596 5.06749 5.0121 4.91556 4.71239 4.15881 
4.91556 4.83537 4.71239 4.50922 4.15881 3.63622 4.80045 4.71239 4.58941 
4.41268 4.15881 3.82181 3.45456 4.71239 4.62433 4.50922 4.35729 4.15881 
3.91219 3.63622 3.36875 6.01742 5.94343 5.82633 5.88092 5.76745 5.62798 
5.8278 5.71897 5.58911 5.43724 5.78235 5.67854 5.55757 5.41926 5.26596 
5.74316 5.64441 5.5315 5.40467 5.26596 5.11955 5.70914 5.61528 5.50962 
5.3926 5.26596 5.13292 4.99789 5.67937 5.59016 5.49102 5.38246 5.26596 
5.14407 5.02016 4.89798 5.56831 5.47502 5.47502 5.37381 5.37381 5.37381 
5.26596 5.26596 5.26596 5.26596 5.1535 5.1535 5.1535 5.1535 5.1535 
5.03907 5.03907 5.03907 5.03907 5.03907 5.03907 4.92564 4.92564 4.92564 
4.92564 4.92564 4.92564 4.92564 4.81599 4.81599 4.81599 4.81599 4.81599 
4.81599 4.81599 4.81599 4.60879 4.60879 4.49914 4.60879 4.49914 4.3857 
4.60879 4.49914 4.3857 4.27128 4.60879 4.49914 4.3857 4.27128 4.15881 
4.60879 4.49914 4.3857 4.27128 4.15881 4.05096 4.60879 4.49914 4.3857 
4.27128 4.15881 4.05096 3.94976 4.60879 4.49914 4.3857 4.27128 4.15881 
4.05096 3.94976 3.85646 4.5268 4.40462 4.42689 4.28071 4.29185 4.30523 
4.15881 4.15881 4.15881 4.15881 4.04232 4.03217 4.02011 4.00552 3.98753 
3.93376 3.91515 3.89328 3.86721 3.83566 3.7968 3.83461 3.8095 3.78037 
3.74624 3.70581 3.65733 3.59845 3.7454 3.71564 3.68161 3.64243 3.59698 
3.54386 3.48135 3.40735 3.56428 3.45246 3.52338 3.33203 3.40312 3.47739 
3.20576 3.27463 3.34802 3.42551 3.07742 3.14159 3.21128 3.28647 3.36688 
2.95116 3.00855 3.0719 3.14159 3.21784 3.3006 2.83072 2.88006 2.93517 
2.99672 3.06535 3.14159 3.22575 2.7189 2.7598 2.8058 2.85768 2.9163 
2.98259 3.05743 3.14159 3.56428 3.52338 3.45246 3.47739 3.40312 3.33203 
3.42551 3.34802 3.27463 3.20576 3.36688 3.28647 3.21128 3.14159 3.07742 
3.3006 3.21784 3.14159 3.0719 3.00855 2.95116 3.22575 3.14159 3.06535 
2.99672 2.93517 2.88006 2.83072 3.14159 3.05743 2.98259 2.9163 2.85768 
2.8058 2.7598 2.7189 4.5268 4.42689 4.40462 4.30523 4.29185 4.28071 
4.15881 4.15881 4.15881 4.15881 3.98753 4.00552 4.02011 4.03217 4.04232 
3.7968 3.83566 3.86721 3.89328 3.91515 3.93376 3.59845 3.65733 3.70581 
3.74624 3.78037 3.8095 3.83461 3.40735 3.48135 3.54386 3.59698 3.64243 
3.68161 3.71564 3.7454 4.71239 4.80045 4.62433 4.91556 4.71239 4.50922 
5.06749 4.83537 4.58941 4.35729 5.26596 5.0121 4.71239 4.41268 4.15881 
5.51259 5.26596 4.91556 4.50922 4.15881 3.91219 5.78856 5.60297 5.26596 
4.71239 4.15881 3.82181 3.63622 6.05603 5.97021 5.78856 5.26596 4.15881 
3.63622 3.45456 3.36875 0.227158 0.494626 0.312971 0.770593 0.680215 0.494626 
1.01722 1.01722 1.01722 1.01722 1.2157 1.27109 1.36763 1.5708 2.12437 
1.36763 1.44781 1.5708 1.77397 2.12437 2.64697 1.48273 1.5708 1.69378 
1.8705 2.12437 2.46138 2.82862 1.5708 1.65886 1.77397 1.9259 2.12437 
2.371 2.64697 2.91443 1.75639 1.87857 1.8563 2.00248 1.99133 1.97796 
2.12437 2.12437 2.12437 2.12437 2.24087 2.25101 2.26308 2.27767 2.29565 
2.34943 2.36803 2.38991 2.41597 2.44752 2.48639 2.44857 2.47368 2.50281 
2.53694 2.57738 2.62586 2.68474 2.53778 2.56754 2.60157 2.64076 2.68621 
2.73933 2.80184 2.87583 1.6744 1.6744 1.78405 1.6744 1.78405 1.89748 
1.6744 1.78405 1.89748 2.01191 1.6744 1.78405 1.89748 2.01191 2.12437 
1.6744 1.78405 1.89748 2.01191 2.12437 2.23222 1.6744 1.78405 1.89748 
2.01191 2.12437 2.23222 2.33343 1.6744 1.78405 1.89748 2.01191 2.12437 
2.23222 2.33343 2.42672 1.4672 1.35755 1.4672 1.24411 1.35755 1.4672 
1.12969 1.24411 1.35755 1.4672 1.01722 1.12969 1.24411 1.35755 1.4672 
0.909371 1.01722 1.12969 1.24411 1.35755 1.4672 0.808166 0.909371 1.01722 
1.12969 1.24411 1.35755 1.4672 0.714871 0.808166 0.909371 1.01722 1.12969 
1.24411 1.35755 1.4672 0.603812 0.57405 0.693022 0.540021 0.667908 0.792164 
0.500837 0.638778 0.773562 0.900726 0.455383 0.604649 0.751687 0.890581 1.01722 
0.402264 0.564217 0.725619 0.878514 1.01722 1.13912 0.339753 0.515737 0.694072 
0.863926 1.01722 1.15026 1.26302 0.265762 0.456853 0.655207 0.845941 1.01722 
1.16363 1.28529 1.38521 0.227158 0.312971 0.494626 0.494626 0.680215 0.770593 
1.01722 1.01722 1.01722 1.01722 2.12437 1.5708 1.36763 1.27109 1.2157 
2.64697 2.12437 1.77397 1.5708 1.44781 1.36763 2.82862 2.46138 2.12437 
1.8705 1.69378 1.5708 1.48273 2.91443 2.64697 2.371 2.12437 1.9259 
1.77397 1.65886 1.5708 1.75639 1.8563 1.87857 1.97796 1.99133 2.00248 
2.12437 2.12437 2.12437 2.12437 2.29565 2.27767 2.26308 2.25101 2.24087 
2.48639 2.44752 2.41597 2.38991 2.36803 2.34943 2.68474 2.62586 2.57738 
2.53694 2.50281 2.47368 2.44857 2.87583 2.80184 2.73933 2.68621 2.64076 
2.60157 2.56754 2.53778 5.86049 5.90139 5.97231 5.94739 6.02165 6.09275 
5.99927 6.07676 6.15015 6.21902 6.0579 6.13831 6.2135 0 0.0641696 
6.12418 6.20694 6.28319 0.069689 0.13304 0.190437 6.19903 0 0.0762451 
0.144876 0.206423 0.261531 0.310872 0 0.0841597 0.159004 0.225289 0.283913 
0.335793 0.381792 0.422692 5.86049 5.97231 5.90139 6.09275 6.02165 5.94739 
6.21902 6.15015 6.07676 5.99927 0.0641696 0 6.2135 6.13831 6.0579 
0.190437 0.13304 0.069689 6.28319 6.20694 6.12418 0.310872 0.261531 0.206423 
0.144876 0.0762451 6.28319 6.19903 0.422692 0.381792 0.335793 0.283913 0.225289 
0.159004 0.0841597 0 5.67937 5.70914 5.59016 5.74316 5.61528 5.49102 
5.78235 5.64441 5.50962 5.38246 5.8278 5.67854 5.5315 5.3926 5.26596 
5.88092 5.71897 5.55757 5.40467 5.26596 5.14407 5.94343 5.76745 5.58911 
5.41926 5.26596 5.13292 5.02016 6.01742 5.82633 5.62798 5.43724 5.26596 
5.11955 4.99789 4.89798 1.38521 1.28529 1.26302 1.16363 1.15026 1.13912 
1.01722 1.01722 1.01722 1.01722 0.845941 0.863926 0.878514 0.890581 0.900726 
0.655207 0.694072 0.725619 0.751687 0.773562 0.792164 0.456853 0.515737 0.564217 
0.604649 0.638778 0.667908 0.693022 0.265762 0.339753 0.402264 0.455383 0.500837 
0.540021 0.57405 0.603812 
