# vtk DataFile Version 4.1
vtk output
ASCII
DATASET POLYDATA
POINTS 1002 float
46.646 95.6509 97.3318 49.5788 99.1905 108.343 42.8799 104.41 94.5155 
45.4297 107.155 104.328 52.784 101.628 100.282 51.2266 105.853 97.968 
39.9823 97.1946 106.523 36.5735 103.645 103.404 55.2372 105.721 107.271 
48.0929 99.6968 90.6925 43.7558 103.169 110.512 41.4526 98.0071 95.7511 
46.7189 96.391 98.263 46.806 97.1729 99.3159 46.9326 97.9334 100.503 
47.114 98.526 101.851 47.3146 98.9467 103.234 47.6622 99.1483 104.596 
48.1356 99.177 105.826 48.6316 99.1704 106.839 49.1076 99.1766 107.658 
46.9795 96.0835 97.3115 47.3473 96.6828 97.3673 47.799 97.4124 97.4819 
48.3226 98.1994 97.7465 48.9077 99.0124 98.1486 49.5758 99.8277 98.6136 
50.3661 100.436 99.0722 51.1927 100.892 99.5138 52.0216 101.285 99.9361 
46.3226 95.7954 98.0087 45.9223 95.9947 98.8709 45.3978 96.3371 99.84 
44.7508 96.8051 100.826 43.9302 97.2282 101.904 42.9781 97.5198 103.078 
42.0483 97.594 104.186 41.2696 97.3625 105.136 40.6129 97.0923 105.931 
46.7826 95.0504 96.4304 46.9263 94.3991 95.6301 47.2031 93.9366 94.9306 
47.5734 93.9889 94.2737 47.8998 94.6283 93.5255 48.071 95.5731 92.7738 
48.117 96.6681 92.149 48.0787 97.8114 91.6498 48.0563 98.8395 91.1597 
46.3589 94.9419 96.8867 45.9607 94.2262 96.5866 45.3875 93.8541 96.3429 
44.7396 94.0112 96.009 44.2183 94.6101 95.6001 43.7889 95.4324 95.3158 
43.1983 96.2232 95.2958 42.4804 96.8591 95.4018 41.874 97.4217 95.5447 
50.2041 99.4514 107.731 50.8166 99.7433 107.045 51.2938 100.112 106.338 
51.6762 100.495 105.572 52.0331 100.807 104.686 52.2676 101.114 103.772 
52.4393 101.384 102.895 52.666 101.478 101.982 52.7841 101.52 101.081 
48.7306 98.8644 108.468 47.9665 98.3956 108.515 47.2115 97.8141 108.526 
46.2924 97.3489 108.458 45.2137 97.3219 108.227 44.0248 97.5515 107.891 
42.7991 97.5826 107.565 41.7029 97.3761 107.244 40.8026 97.2251 106.893 
50.3814 99.4853 108.594 51.2191 99.9011 108.772 52.08 100.411 108.898 
52.9648 100.964 108.952 53.7992 101.591 108.931 54.447 102.445 108.812 
54.8594 103.429 108.448 55.1077 104.304 107.971 55.224 105.058 107.614 
49.4313 99.1328 109.105 49.1938 99.223 109.824 48.8248 99.5143 110.432 
48.2971 99.9913 110.941 47.5945 100.567 111.302 46.7644 101.156 111.435 
45.9133 101.75 111.37 45.1011 102.324 111.167 44.371 102.804 110.861 
42.9188 104.879 95.3225 43.0095 105.305 96.2825 43.1544 105.701 97.3338 
43.3409 106.073 98.4504 43.5689 106.425 99.5634 43.806 106.787 100.594 
44.0865 107.071 101.635 44.4588 107.211 102.658 44.9365 107.215 103.577 
43.417 104.678 94.3104 44.0627 104.908 94.2087 44.8188 105.119 94.2243 
45.7008 105.356 94.4243 46.6704 105.544 94.861 47.6403 105.655 95.484 
48.5594 105.728 96.1889 49.4501 105.763 96.8778 50.3521 105.799 97.479 
42.4096 104.393 95.3201 41.9144 104.35 96.2902 41.3235 104.297 97.3503 
40.5884 104.257 98.3678 39.7304 104.231 99.2944 38.8592 104.17 100.172 
38.0993 104.055 101.021 37.4406 103.95 101.797 36.9123 103.832 102.573 
43.1732 104.113 93.5681 43.5474 103.787 92.5563 43.9252 103.456 91.4638 
44.2218 103.158 90.3372 44.6963 102.843 89.5157 45.5384 102.38 89.3723 
46.3733 101.747 89.6932 47.0402 101.036 90.0476 47.629 100.337 90.359 
42.5528 103.938 94.2372 42.1996 103.442 94.0105 41.8281 102.896 93.8483 
41.5206 102.238 93.8269 41.3382 101.428 93.9816 41.2097 100.516 94.214 
41.1542 99.6625 94.5418 41.22 98.9844 94.9515 41.3364 98.445 95.3547 
46.1989 107.254 103.752 46.9728 107.378 103.079 47.6208 107.594 102.345 
48.3249 107.662 101.555 49.1598 107.535 100.739 49.9072 107.332 100.01 
50.4274 107.03 99.4212 50.7866 106.613 98.9053 51.0504 106.206 98.4139 
44.3692 107.045 104.429 43.2736 106.872 104.474 42.1102 106.678 104.489 
40.9664 106.435 104.467 39.9283 106.087 104.396 38.9059 105.69 104.258 
38.056 105.257 104.114 37.4556 104.748 103.923 36.9646 104.195 103.668 
46.4257 107.119 104.644 47.5278 107.056 104.938 48.6529 107.068 105.322 
49.7651 107.201 105.789 50.9167 107.286 106.223 52.183 107.163 106.532 
53.379 106.967 106.776 54.2225 106.741 107.071 54.7925 106.306 107.259 
45.2373 106.981 105.072 45.0429 106.694 105.776 44.8265 106.353 106.478 
44.6194 105.953 107.195 44.396 105.513 107.9 44.1747 105.055 108.534 
44.0181 104.549 109.122 43.9397 104.033 109.659 43.8559 103.593 110.125 
53.1855 101.92 99.9274 53.6048 102.216 99.3877 54.0303 102.523 98.7429 
54.2711 103.047 98.2406 54.1948 103.803 98.013 53.8149 104.488 97.9679 
53.221 104.956 97.9793 52.5209 105.329 97.9952 51.8523 105.633 97.9854 
53.4896 101.873 101.023 54.0857 102.248 101.834 54.7051 102.731 102.774 
55.5328 103.045 103.571 56.3524 103.225 104.229 56.8137 103.65 105.058 
56.8101 104.335 105.944 56.4406 104.918 106.517 55.8509 105.349 106.871 
52.2966 101.506 99.2731 51.8792 101.173 98.083 51.5158 100.678 96.8594 
51.046 100.215 95.6741 50.4987 99.841 94.4721 50.0506 99.5457 93.3184 
49.6588 99.3941 92.2564 49.2731 99.3664 91.3583 48.7598 99.489 90.8568 
52.01 106.112 98.7169 52.8047 106.355 99.5498 53.5836 106.577 100.443 
54.3414 106.831 101.404 55.0566 107.062 102.454 55.5498 107.053 103.55 
55.735 106.781 104.65 55.7149 106.452 105.697 55.5327 106.103 106.583 
50.8212 105.435 97.2308 50.3675 104.957 96.3692 49.9226 104.456 95.349 
49.5437 103.944 94.1918 49.1902 103.334 93.0379 48.8985 102.62 91.9859 
48.8726 101.912 91.0221 48.8795 101.168 90.3995 48.594 100.392 90.335 
39.0897 97.3891 106.559 38.1691 97.6558 106.544 37.3845 97.9667 106.488 
36.726 98.4999 106.354 36.3516 99.3165 106.056 36.3031 100.326 105.561 
36.341 101.396 104.972 36.2979 102.36 104.379 36.3171 103.103 103.841 
39.9393 97.5616 107.201 39.9992 98.1055 107.789 40.187 98.7204 108.339 
40.4776 99.3604 108.901 40.8466 100.011 109.446 41.302 100.621 109.949 
41.774 101.29 110.386 42.3142 102.046 110.641 43.0025 102.699 110.662 
39.5734 97.0798 105.742 39.2589 97.1702 104.813 39.2151 97.4553 103.799 
39.4309 97.7614 102.683 39.8084 97.8813 101.444 40.2735 97.9082 100.152 
40.7241 97.9451 98.9002 41.0523 97.9492 97.7334 41.2866 97.9642 96.682 
36.5969 103.736 104.499 36.7965 103.776 105.651 37.1169 103.804 106.758 
37.5322 103.826 107.84 38.1028 103.806 108.802 39.0144 103.657 109.412 
40.2434 103.479 109.718 41.5213 103.353 109.99 42.688 103.252 110.268 
36.4639 103.185 102.592 36.5716 102.533 101.79 36.8494 101.76 101.025 
37.2534 101.053 100.294 37.8337 100.439 99.6096 38.6389 99.8871 98.9699 
39.5675 99.4572 98.3062 40.3925 99.0911 97.5061 40.9818 98.5778 96.5889 
54.5914 105.641 107.857 53.7817 105.43 108.329 52.7686 105.145 108.743 
51.5764 104.826 109.2 50.2621 104.506 109.664 48.784 104.205 110.046 
47.3103 103.91 110.325 46.0433 103.615 110.459 44.8716 103.368 110.505 
47.2986 99.4123 90.9008 46.4478 99.0548 91.0603 45.6382 98.6318 91.2018 
44.7809 98.2428 91.493 43.8209 97.809 91.6978 42.9237 97.3817 91.895 
42.3422 97.2324 92.5273 42.0438 97.392 93.5796 41.7881 97.6973 94.7004 
47.0691 96.8919 98.2948 47.4875 97.5581 98.3455 47.1869 97.7365 99.3802 
47.9989 98.2859 98.5351 47.7116 98.3686 99.5389 47.4518 98.4326 100.71 
48.5731 99.0297 98.9199 48.3401 98.9994 99.8892 48.1268 98.9264 101.033 
47.8135 98.8953 102.173 49.2968 99.7568 99.4008 49.0602 99.6616 100.311 
48.9149 99.4422 101.387 48.6897 99.2351 102.502 48.2378 99.1763 103.564 
50.1695 100.348 99.8894 49.9817 100.177 100.757 49.828 99.9497 101.728 
49.6252 99.6685 102.788 49.2499 99.4454 103.845 48.7084 99.32 104.873 
51.0714 100.787 100.351 50.9546 100.581 101.216 50.8145 100.343 102.126 
50.5881 100.123 103.144 50.1953 99.906 104.187 49.7297 99.6623 105.16 
49.1958 99.417 106.062 51.9605 101.19 100.773 51.8375 101.045 101.66 
51.6792 100.824 102.554 51.482 100.574 103.504 51.1106 100.381 104.531 
50.6828 100.118 105.441 50.2626 99.7698 106.243 49.729 99.4465 106.992 
47.1162 95.6259 96.3959 47.2757 95.2351 95.5411 47.5078 96.3822 96.4647 
47.5758 95.0404 94.8067 47.7012 96.1863 95.6124 48.0412 97.2215 96.6761 
48.0269 95.174 94.0907 48.0508 96.1766 94.848 48.3249 97.1615 95.8661 
48.6562 98.1074 97.0002 48.4772 95.677 93.2661 48.5044 96.3812 94.0559 
48.6333 97.2654 95.0626 48.9592 98.1384 96.2237 49.263 99.0329 97.423 
48.7918 96.4097 92.4815 49.003 96.7504 93.2475 49.0089 97.5041 94.2707 
49.2286 98.3022 95.4508 49.6216 99.0866 96.6848 49.955 99.8711 97.8868 
48.8426 97.4025 91.8525 49.3259 97.3677 92.4673 49.4436 97.8586 93.4887 
49.5786 98.55 94.6951 49.979 99.2161 95.9744 50.3868 99.9025 97.18 
50.7451 100.506 98.3491 48.7622 98.4941 91.3342 49.3287 98.3334 91.8573 
49.6806 98.4967 92.7729 49.9281 98.9227 93.9224 50.3112 99.4517 95.2189 
50.7977 100 96.4606 51.1756 100.57 97.6283 51.5487 101.024 98.8084 
49.1784 100.318 90.7547 49.2652 101.176 91.2781 49.505 100.337 91.7111 
49.2492 101.954 92.1777 49.566 101.242 92.5176 49.8787 100.416 92.8654 
49.5284 102.745 93.1457 49.8394 102.084 93.4149 50.1902 101.368 93.6811 
50.4414 100.532 93.9611 49.9949 103.496 94.2067 50.408 102.92 94.3267 
50.8072 102.266 94.4877 51.0649 101.475 94.6684 51.133 100.697 95.039 
50.4469 104.103 95.3326 50.9624 103.652 95.3449 51.4735 103.085 95.3823 
51.8376 102.354 95.4706 51.9081 101.556 95.7138 51.776 100.983 96.2295 
50.9525 104.645 96.34 51.5474 104.283 96.2991 52.0843 103.818 96.2983 
52.5451 103.155 96.3529 52.7319 102.35 96.5228 52.5843 101.732 96.9469 
52.264 101.402 97.5467 51.4429 105.169 97.2143 52.1185 104.839 97.1745 
52.7424 104.45 97.1455 53.2259 103.887 97.1862 53.5172 103.102 97.305 
53.4789 102.389 97.628 53.1409 102.008 98.2201 52.7125 101.772 98.837 
53.9033 102.236 100.61 54.3636 102.594 100.029 54.5569 102.681 101.447 
54.7572 103 99.3902 55.0167 103.087 100.912 55.2333 103.184 102.421 
54.8748 103.663 98.9533 55.2925 103.607 100.329 55.6387 103.633 101.874 
56.0235 103.535 103.142 54.636 104.448 98.8161 55.2598 104.39 99.9256 
55.8005 104.343 101.287 56.3165 104.222 102.549 56.6656 104.006 103.784 
54.0994 105.07 98.8143 54.9004 105.171 99.7555 55.6331 105.215 100.891 
56.2961 105.159 102.065 56.7198 105.017 103.304 56.8798 104.759 104.701 
[...]
POINT_DATA 1002
SCALARS Color_Map_Phi float
LOOKUP_TABLE default
6.28319 3.14159 6.28319 3.14159 4.71239 4.71239 1.5708 1.5708 3.69517 
5.72961 2.58802 0.553574 6.28319 6.28319 6.28319 6.28319 3.14159 3.14159 
3.14159 3.14159 3.14159 6.1053 5.8988 5.67687 5.45995 5.26596 5.10322 
4.97131 4.86569 4.78095 0.177881 0.384387 0.606312 0.823235 1.01722 1.17997 
1.31187 1.4175 1.50223 6.18928 6.10703 6.03531 5.97283 5.91832 5.87061 
5.82869 5.79168 5.75886 0.0939024 0.176153 0.247873 0.310351 0.364864 0.412573 
0.454497 0.491504 0.524326 3.31947 3.52598 3.7479 3.96483 4.15881 4.32156 
4.45346 4.55909 4.64383 2.96371 2.75721 2.53528 2.31836 2.12437 1.96162 
1.82972 1.72409 1.63936 3.2355 3.31775 3.38947 3.45194 3.50646 3.55417 
3.59609 3.6331 3.66592 3.04769 2.96544 2.89372 2.83124 2.77673 2.72902 
2.6871 2.65009 2.61727 6.28319 6.28319 6.28319 6.28319 3.14159 3.14159 
3.14159 3.14159 3.14159 6.1053 5.8988 5.67687 5.45995 5.26596 5.10322 
4.97131 4.86569 4.78095 0.177881 0.384387 0.606312 0.823235 1.01722 1.17997 
1.31187 1.4175 1.50223 6.18928 6.10703 6.03531 5.97283 5.91832 5.87061 
5.82869 5.79168 5.75886 0.0939024 0.176153 0.247873 0.310351 0.364864 0.412573 
0.454497 0.491504 0.524326 3.31947 3.52598 3.7479 3.96483 4.15881 4.32156 
4.45346 4.55909 4.64383 2.96371 2.75721 2.53528 2.31836 2.12437 1.96162 
1.82972 1.72409 1.63936 3.2355 3.31775 3.38947 3.45194 3.50646 3.55417 
3.59609 3.6331 3.66592 3.04769 2.96544 2.89372 2.83124 2.77673 2.72902 
2.6871 2.65009 2.61727 4.71239 4.71239 4.71239 4.71239 4.71239 4.71239 
4.71239 4.71239 4.71239 4.60879 4.49914 4.3857 4.27128 4.15881 4.05096 
3.94976 3.85646 3.77161 4.81599 4.92564 5.03907 5.1535 5.26596 5.37381 
5.47502 5.56831 5.65317 4.60879 4.49914 4.3857 4.27128 4.15881 4.05096 
3.94976 3.85646 3.77161 4.81599 4.92564 5.03907 5.1535 5.26596 5.37381 
5.47502 5.56831 5.65317 1.5708 1.5708 1.5708 1.5708 1.5708 1.5708 
1.5708 1.5708 1.5708 1.6744 1.78405 1.89748 2.01191 2.12437 2.23222 
2.33343 2.42672 2.51157 1.4672 1.35755 1.24411 1.12969 1.01722 0.909371 
0.808166 0.714871 0.63002 1.6744 1.78405 1.89748 2.01191 2.12437 2.23222 
2.33343 2.42672 2.51157 1.4672 1.35755 1.24411 1.12969 1.01722 0.909371 
0.808166 0.714871 0.63002 3.60077 3.49669 3.38395 3.26458 3.14159 3.01861 
2.89924 2.78649 2.68241 5.82401 5.92808 6.04083 6.1602 6.28319 0.122983 
0.242354 0.355101 0.459179 6.05603 5.78856 5.97021 5.51259 5.60297 5.78856 
5.26596 5.26596 5.26596 5.26596 5.06749 5.0121 4.91556 4.71239 4.15881 
4.91556 4.83537 4.71239 4.50922 4.15881 3.63622 4.80045 4.71239 4.58941 
4.41268 4.15881 3.82181 3.45456 4.71239 4.62433 4.50922 4.35729 4.15881 
3.91219 3.63622 3.36875 6.01742 5.94343 5.82633 5.88092 5.76745 5.62798 
5.8278 5.71897 5.58911 5.43724 5.78235 5.67854 5.55757 5.41926 5.26596 
5.74316 5.64441 5.5315 5.40467 5.26596 5.11955 5.70914 5.61528 5.50962 
5.3926 5.26596 5.13292 4.99789 5.67937 5.59016 5.49102 5.38246 5.26596 
5.14407 5.02016 4.89798 5.56831 5.47502 5.47502 5.37381 5.37381 5.37381 
5.26596 5.26596 5.26596 5.26596 5.1535 5.1535 5.1535 5.1535 5.1535 
5.03907 5.03907 5.03907 5.03907 5.03907 5.03907 4.92564 4.92564 4.92564 
4.92564 4.92564 4.92564 4.92564 4.81599 4.81599 4.81599 4.81599 4.81599 
4.81599 4.81599 4.81599 4.60879 4.60879 4.49914 4.60879 4.49914 4.3857 
4.60879 4.49914 4.3857 4.27128 4.60879 4.49914 4.3857 4.27128 4.15881 
4.60879 4.49914 4.3857 4.27128 4.15881 4.05096 4.60879 4.49914 4.3857 
4.27128 4.15881 4.05096 3.94976 4.60879 4.49914 4.3857 4.27128 4.15881 
4.05096 3.94976 3.85646 4.5268 4.40462 4.42689 4.28071 4.29185 4.30523 
4.15881 4.15881 4.15881 4.15881 4.04232 4.03217 4.02011 4.00552 3.98753 
3.93376 3.91515 3.89328 3.86721 3.83566 3.7968 3.83461 3.8095 3.78037 
3.74624 3.70581 3.65733 3.59845 3.7454 3.71564 3.68161 3.64243 3.59698 
3.54386 3.48135 3.40735 3.56428 3.45246 3.52338 3.33203 3.40312 3.47739 
3.20576 3.27463 3.34802 3.42551 3.07742 3.14159 3.21128 3.28647 3.36688 
2.95116 3.00855 3.0719 3.14159 3.21784 3.3006 2.83072 2.88006 2.93517 
2.99672 3.06535 3.14159 3.22575 2.7189 2.7598 2.8058 2.85768 2.9163 
2.98259 3.05743 3.14159 3.56428 3.52338 3.45246 3.47739 3.40312 3.33203 
3.42551 3.34802 3.27463 3.20576 3.36688 3.28647 3.21128 3.14159 3.07742 
3.3006 3.21784 3.14159 3.0719 3.00855 2.95116 3.22575 3.14159 3.06535 
2.99672 2.93517 2.88006 2.83072 3.14159 3.05743 2.98259 2.9163 2.85768 
2.8058 2.7598 2.7189 4.5268 4.42689 4.40462 4.30523 4.29185 4.28071 
4.15881 4.15881 4.15881 4.15881 3.98753 4.00552 4.02011 4.03217 4.04232 
3.7968 3.83566 3.86721 3.89328 3.91515 3.93376 3.59845 3.65733 3.70581 
3.74624 3.78037 3.8095 3.83461 3.40735 3.48135 3.54386 3.59698 3.64243 
3.68161 3.71564 3.7454 4.71239 4.80045 4.62433 4.91556 4.71239 4.50922 
5.06749 4.83537 4.58941 4.35729 5.26596 5.0121 4.71239 4.41268 4.15881 
5.51259 5.26596 4.91556 4.50922 4.15881 3.91219 5.78856 5.60297 5.26596 
4.71239 4.15881 3.82181 3.63622 6.05603 5.97021 5.78856 5.26596 4.15881 
3.63622 3.45456 3.36875 0.227158 0.494626 0.312971 0.770593 0.680215 0.494626 
1.01722 1.01722 1.01722 1.01722 1.2157 1.27109 1.36763 1.5708 2.12437 
1.36763 1.44781 1.5708 1.77397 2.12437 2.64697 1.48273 1.5708 1.69378 
1.8705 2.12437 2.46138 2.82862 1.5708 1.65886 1.77397 1.9259 2.12437 
2.371 2.64697 2.91443 1.75639 1.87857 1.8563 2.00248 1.99133 1.97796 
2.12437 2.12437 2.12437 2.12437 2.24087 2.25101 2.26308 2.27767 2.29565 
2.34943 2.36803 2.38991 2.41597 2.44752 2.48639 2.44857 2.47368 2.50281 
2.53694 2.57738 2.62586 2.68474 2.53778 2.56754 2.60157 2.64076 2.68621 
2.73933 2.80184 2.87583 1.6744 1.6744 1.78405 1.6744 1.78405 1.89748 
1.6744 1.78405 1.89748 2.01191 1.6744 1.78405 1.89748 2.01191 2.12437 
1.6744 1.78405 1.89748 2.01191 2.12437 2.23222 1.6744 1.78405 1.89748 
2.01191 2.12437 2.23222 2.33343 1.6744 1.78405 1.89748 2.01191 2.12437 
2.23222 2.33343 2.42672 1.4672 1.35755 1.4672 1.24411 1.35755 1.4672 
1.12969 1.24411 1.35755 1.4672 1.01722 1.12969 1.24411 1.35755 1.4672 
0.909371 1.01722 1.12969 1.24411 1.35755 1.4672 0.808166 0.909371 1.01722 
1.12969 1.24411 1.35755 1.4672 0.714871 0.808166 0.909371 1.01722 1.12969 
1.24411 1.35755 1.4672 0.603812 0.57405 0.693022 0.540021 0.667908 0.792164 
0.500837 0.638778 0.773562 0.900726 0.455383 0.604649 0.751687 0.890581 1.01722 
0.402264 0.564217 0.725619 0.878514 1.01722 1.13912 0.339753 0.515737 0.694072 
0.863926 1.01722 1.15026 1.26302 0.265762 0.456853 0.655207 0.845941 1.01722 
1.16363 1.28529 1.38521 0.227158 0.312971 0.494626 0.494626 0.680215 0.770593 
1.01722 1.01722 1.01722 1.01722 2.12437 1.5708 1.36763 1.27109 1.2157 
2.64697 2.12437 1.77397 1.5708 1.44781 1.36763 2.82862 2.46138 2.12437 
1.8705 1.69378 1.5708 1.48273 2.91443 2.64697 2.371 2.12437 1.9259 
1.77397 1.65886 1.5708 1.75639 1.8563 1.87857 1.97796 1.99133 2.00248 
2.12437 2.12437 2.12437 2.12437 2.29565 2.27767 2.26308 2.25101 2.24087 
2.48639 2.44752 2.41597 2.38991 2.36803 2.34943 2.68474 2.62586 2.57738 
2.53694 2.50281 2.47368 2.44857 2.87583 2.80184 2.73933 2.68621 2.64076 
2.60157 2.56754 2.53778 5.86049 5.90139 5.97231 5.94739 6.02165 6.09275 
5.99927 6.07676 6.15015 6.21902 6.0579 6.13831 6.2135 0 0.0641696 
6.12418 6.20694 6.28319 0.069689 0.13304 0.190437 6.19903 0 0.0762451 
0.144876 0.206423 0.261531 0.310872 0 0.0841597 0.159004 0.225289 0.283913 
0.335793 0.381792 0.422692 5.86049 5.97231 5.90139 6.09275 6.02165 5.94739 
6.21902 6.15015 6.07676 5.99927 0.0641696 0 6.2135 6.13831 6.0579 
0.190437 0.13304 0.069689 6.28319 6.20694 6.12418 0.310872 0.261531 0.206423 
0.144876 0.0762451 6.28319 6.19903 0.422692 0.381792 0.335793 0.283913 0.225289 
0.159004 0.0841597 0 5.67937 5.70914 5.59016 5.74316 5.61528 5.49102 
5.78235 5.64441 5.50962 5.38246 5.8278 5.67854 5.5315 5.3926 5.26596 
5.88092 5.71897 5.55757 5.40467 5.26596 5.14407 5.94343 5.76745 5.58911 
5.41926 5.26596 5.13292 5.02016 6.01742 5.82633 5.62798 5.43724 5.26596 
5.11955 4.99789 4.89798 1.38521 1.28529 1.26302 1.16363 1.15026 1.13912 
1.01722 1.01722 1.01722 1.01722 0.845941 0.863926 0.878514 0.890581 0.900726 
0.655207 0.694072 0.725619 0.751687 0.773562 0.792164 0.456853 0.515737 0.564217 
0.604649 0.638778 0.667908 0.693022 0.265762 0.339753 0.402264 0.455383 0.500837 
0.540021 0.57405 0.603812 
