# vtk DataFile Version 4.1
vtk output
ASCII
DATASET POLYDATA
POINTS 1002 float
45.8014 97.1648 96.5937 48.3393 99.5032 104.57 44.1428 102.992 94.8332 
45.2819 106.13 102.588 49.2896 103.077 99.4891 50.0923 105.4 97.0305 
40.6582 96.6904 102.909 39.1074 101.887 101.224 53.301 104.409 105.014 
47.9575 99.8245 90.658 44.2829 101.911 106.506 43.3674 97.0357 95.4336 
45.6727 97.8548 97.346 45.5558 98.4822 98.2137 45.4637 99.0684 99.1078 
45.4019 99.6229 100.096 45.4741 100.028 101.245 45.8318 100.162 102.348 
46.4363 100.079 103.158 47.0967 99.9127 103.722 47.7342 99.7167 104.173 
45.966 97.7181 96.6938 46.1377 98.3669 96.809 46.3399 99.1006 96.9726 
46.6594 99.7959 97.215 47.0687 100.436 97.5419 47.4703 101.116 97.9426 
47.8567 101.796 98.3663 48.2928 102.357 98.7528 48.7819 102.776 99.1299 
45.5634 97.0765 97.0009 45.3025 97.0185 97.5578 44.981 96.9954 98.2239 
44.4927 97.0365 98.8963 43.8361 97.0686 99.632 43.2519 96.8412 100.572 
42.7794 96.4195 101.527 42.1423 96.2384 102.215 41.3301 96.42 102.624 
46.0142 96.7864 95.9808 46.1996 96.5084 95.3394 46.3804 96.3974 94.7182 
46.6185 96.5118 94.1121 46.9213 96.8607 93.4817 47.265 97.3507 92.8139 
47.5991 97.888 92.1243 47.8056 98.4732 91.5121 47.9106 99.1257 91.0341 
45.8064 96.3026 96.1789 45.8738 95.2548 95.8266 45.9013 94.1226 95.528 
45.61 93.2505 95.3154 44.9995 93.0691 95.1116 44.5252 93.6574 94.8832 
44.25 94.6496 94.8459 43.9789 95.643 95.0206 43.6691 96.4295 95.2298 
48.4806 100.019 104.4 48.6824 100.521 104.128 48.9299 100.951 103.709 
49.1337 101.368 103.218 49.2454 101.823 102.68 49.2942 102.221 102.081 
49.3422 102.51 101.476 49.3667 102.764 100.851 49.3197 102.986 100.166 
47.7963 99.1279 104.488 47.1275 98.7558 104.424 46.3579 98.4183 104.364 
45.5102 98.1494 104.269 44.5746 97.8969 104.166 43.6291 97.5812 104.063 
42.7594 97.2664 103.833 41.964 97.0284 103.492 41.2593 96.8375 103.19 
49.007 99.6416 104.862 49.711 99.8728 105.131 50.4865 100.179 105.396 
51.2972 100.519 105.668 52.0553 100.9 105.896 52.5594 101.52 106.001 
52.8635 102.355 105.893 53.1124 103.178 105.65 53.2734 103.868 105.348 
48.5662 99.1079 104.979 48.5146 99.012 105.556 48.1062 99.2765 106.153 
47.6102 99.5641 106.627 47.1412 99.7849 107 46.4424 100.245 107.214 
45.6848 100.835 107.182 45.1374 101.271 106.986 44.7221 101.6 106.73 
44.146 103.414 95.4541 44.1686 103.853 96.1962 44.244 104.246 97.0675 
44.3204 104.646 97.9394 44.3955 105.061 98.8041 44.5354 105.396 99.6978 
44.6957 105.678 100.536 44.8238 105.951 101.286 44.9932 106.128 101.985 
44.4961 103.285 94.6272 44.9136 103.602 94.488 45.3796 103.946 94.4353 
45.8914 104.294 94.4882 46.4967 104.589 94.6683 47.1927 104.811 94.991 
47.9395 105 95.4653 48.6971 105.166 96.0327 49.4227 105.3 96.5719 
43.7994 102.953 95.4646 43.397 102.911 96.1624 42.9319 102.875 96.9141 
42.4129 102.8 97.7086 41.8392 102.642 98.4776 41.1625 102.518 99.0848 
40.4335 102.45 99.5652 39.8405 102.288 100.083 39.4481 102.056 100.672 
44.3332 102.778 94.0506 44.5393 102.556 93.1613 44.8096 102.31 92.261 
45.0806 102.083 91.3345 45.2946 101.856 90.4483 45.6994 101.545 89.9777 
46.3543 101.187 90.0172 47.0062 100.823 90.2472 47.5365 100.35 90.4681 
43.9183 102.566 94.6079 43.6628 102.1 94.38 43.4011 101.551 94.1916 
43.1969 100.896 94.1097 43.1162 100.146 94.2011 43.1624 99.3992 94.4741 
43.2502 98.7303 94.8005 43.312 98.1043 95.0492 43.3471 97.5237 95.2479 
45.807 106.317 102.183 46.3637 106.459 101.67 46.9749 106.506 101.022 
47.6377 106.481 100.28 48.2786 106.468 99.5395 48.8317 106.422 98.8668 
49.3038 106.221 98.3211 49.6886 105.917 97.8891 49.9421 105.644 97.4753 
44.5443 105.945 102.601 43.7647 105.701 102.575 42.9895 105.354 102.516 
42.207 104.934 102.449 41.4547 104.472 102.329 40.7939 103.975 102.153 
40.2587 103.418 101.972 39.8383 102.822 101.77 39.4703 102.29 101.515 
46.0134 106.127 102.875 46.8629 106.079 103.162 47.8032 106.035 103.497 
48.8368 105.927 103.808 49.9102 105.721 104.062 50.8904 105.59 104.362 
51.7081 105.461 104.626 52.3632 105.164 104.782 52.8929 104.783 104.9 
45.1964 105.9 103.13 45.108 105.594 103.68 45.0167 105.213 104.162 
44.8962 104.77 104.606 44.7629 104.306 105.077 44.6583 103.873 105.545 
44.5598 103.412 105.919 44.4272 102.892 106.173 44.3301 102.389 106.359 
49.6765 103.229 99.2306 50.1257 103.386 98.8802 50.6859 103.494 98.4927 
51.1826 103.603 98.1604 51.5141 103.848 97.7551 51.6658 104.291 97.2889 
51.5726 104.769 97.0099 51.1783 105.114 96.9605 50.619 105.303 97.0001 
49.927 103.255 100.185 50.7329 103.328 100.801 51.649 103.284 101.341 
52.6598 103.15 101.783 53.6024 103.003 102.19 54.1469 103.011 102.834 
54.2444 103.329 103.733 54.107 103.827 104.447 53.777 104.21 104.818 
49.0635 102.862 98.579 48.9281 102.496 97.6237 48.7932 102.037 96.6307 
48.6611 101.563 95.5321 48.5824 101.11 94.3996 48.4928 100.696 93.3317 
48.4601 100.29 92.3079 48.522 99.938 91.4056 48.4193 99.7778 90.8353 
50.6985 105.621 97.7371 51.3436 105.821 98.4933 52.025 106.036 99.3065 
52.7333 106.217 100.122 53.3999 106.305 101 53.8131 106.215 102.051 
53.8996 105.86 103.089 53.7779 105.334 103.9 53.5607 104.823 104.514 
49.7839 105.054 96.2763 49.459 104.633 95.4149 49.1819 104.186 94.434 
48.9523 103.645 93.4018 48.7319 103.05 92.4023 48.5887 102.531 91.3779 
48.5767 101.97 90.4983 48.5368 101.259 90.1658 48.307 100.509 90.3457 
39.9693 96.8017 102.886 39.3412 97.0096 102.825 38.7634 97.3539 102.702 
38.346 97.8348 102.542 38.1934 98.5546 102.332 38.1658 99.4882 102.063 
38.1402 100.391 101.79 38.2791 101.079 101.559 38.6867 101.527 101.381 
40.4781 97.0553 103.379 40.3928 97.4712 103.952 40.4185 97.9235 104.625 
40.6812 98.4137 105.252 41.1374 99.0135 105.711 41.6981 99.6699 106.035 
42.4056 100.271 106.286 43.1604 100.853 106.433 43.7828 101.428 106.492 
40.4726 96.3892 102.42 40.3964 96.1213 101.793 40.457 96.0436 101.026 
40.7328 96.2559 100.211 41.1867 96.5506 99.3183 41.7515 96.6986 98.3347 
42.2895 96.7474 97.4162 42.7167 96.8107 96.6546 43.0738 96.8993 95.9981 
39.0308 101.977 101.957 39.0143 102.085 102.777 39.0663 102.232 103.708 
39.2436 102.39 104.62 39.7517 102.38 105.256 40.6198 102.163 105.589 
41.6251 101.99 105.808 42.6055 101.985 106.052 43.5022 101.994 106.307 
39.0183 101.548 100.59 39.0595 101.07 99.984 39.3206 100.504 99.4689 
39.7563 99.9653 98.9653 40.2739 99.4254 98.4052 40.9292 98.8869 97.8742 
41.6937 98.4206 97.3614 42.3602 97.9712 96.7251 42.9011 97.4961 96.0345 
52.7222 104.25 105.417 52.0104 104.07 105.832 51.1974 103.893 106.261 
50.2437 103.691 106.643 49.2063 103.401 106.868 48.223 103.014 106.831 
47.2529 102.581 106.648 46.1904 102.25 106.547 45.1432 102.066 106.534 
47.2799 99.4704 90.8932 46.6203 99.0179 91.1584 46.024 98.4358 91.4615 
45.385 97.735 91.7608 44.8349 97.1286 92.1022 44.5328 96.8297 92.7018 
44.3474 96.7767 93.5021 44.1148 96.7973 94.2293 43.7839 96.8725 94.8247 
45.8593 98.4023 97.5019 46.072 99.0528 97.6741 45.7872 99.0538 98.3975 
46.3825 99.7353 97.9087 46.077 99.7037 98.6351 45.7522 99.6727 99.3592 
46.7797 100.394 98.2254 46.4735 100.333 98.9662 46.1269 100.286 99.7029 
45.7707 100.197 100.476 47.2116 101.064 98.6091 46.9582 100.931 99.3456 
46.6449 100.797 100.126 46.2789 100.7 100.913 45.9956 100.486 101.677 
47.6756 101.712 99.0613 47.5243 101.506 99.7715 47.3071 101.257 100.548 
46.9767 101.095 101.352 46.6897 100.879 102.061 46.5373 100.498 102.67 
48.1824 102.248 99.5093 48.1263 102.005 100.236 48.0144 101.714 100.955 
47.7857 101.467 101.721 47.5347 101.203 102.388 47.3643 100.816 102.928 
47.2317 100.359 103.389 48.7376 102.661 99.8723 48.7364 102.415 100.618 
48.6817 102.145 101.286 48.5631 101.864 101.96 48.4189 101.504 102.593 
48.26 101.091 103.119 48.0755 100.658 103.589 47.8859 100.198 103.95 
46.2025 97.4596 96.0122 46.4225 97.277 95.3459 46.3641 98.2423 96.1126 
46.6261 97.3004 94.6989 46.591 98.2039 95.442 46.5461 99.1018 96.2908 
46.8482 97.5593 94.0444 46.8458 98.3045 94.7386 46.8029 99.1413 95.6095 
46.9078 99.8321 96.5527 47.1195 97.9686 93.3976 47.1158 98.5581 94.0423 
47.1215 99.2525 94.8747 47.1956 99.93 95.8774 47.362 100.501 96.9111 
47.5136 98.3912 92.6987 47.4279 98.9114 93.4053 47.4632 99.4389 94.1943 
47.5076 100.08 95.1837 47.6327 100.662 96.2749 47.7531 101.233 97.3292 
47.9515 98.7709 91.9599 47.8431 99.254 92.7064 47.8189 99.7127 93.5679 
47.8637 100.227 94.5316 47.9219 100.809 95.6414 48.0419 101.361 96.7289 
48.1443 101.916 97.7405 48.257 99.2074 91.3346 48.2464 99.5524 92.0077 
48.1667 100.007 92.9213 48.2098 100.443 93.9093 48.2667 100.924 95.001 
48.3573 101.445 96.1439 48.4849 101.97 97.1799 48.5963 102.452 98.1565 
48.6435 100.5 90.7196 48.7878 101.318 90.8354 48.7022 100.656 91.5474 
48.8948 102.066 91.435 48.9401 101.43 91.9308 48.7456 100.955 92.6651 
49.072 102.66 92.3648 49.2649 102.109 92.6204 49.1673 101.609 93.2139 
48.8751 101.329 93.8392 49.3062 103.28 93.3676 49.5765 102.764 93.5014 
49.6146 102.23 93.9253 49.3394 101.938 94.4952 48.9661 101.77 95.0185 
49.5735 103.923 94.4025 49.8755 103.506 94.4812 50.0096 102.953 94.7589 
49.8585 102.54 95.2213 49.4554 102.389 95.7021 49.0832 102.24 96.1765 
49.9135 104.449 95.3893 50.2759 104.159 95.4402 50.4604 103.693 95.6342 
50.4347 103.186 95.9988 50.1276 102.916 96.4038 49.6616 102.824 96.811 
49.2614 102.674 97.2545 50.2933 104.904 96.2397 50.7642 104.667 96.2488 
51.0262 104.281 96.3847 51.0494 103.782 96.7234 50.8498 103.4 97.1359 
50.4171 103.253 97.4849 49.8856 103.17 97.8693 49.4278 103.023 98.2785 
50.3971 103.415 99.8948 50.9598 103.563 99.5153 51.3457 103.465 100.477 
51.5149 103.705 99.1357 51.9749 103.624 100.073 52.3894 103.411 100.97 
51.9224 103.921 98.749 52.454 103.871 99.6676 53.0076 103.653 100.518 
53.3889 103.351 101.368 52.1762 104.313 98.2502 52.7399 104.275 99.2348 
53.3755 104.11 100.07 53.8336 103.837 100.891 54.0828 103.449 101.84 
52.1995 104.838 97.8445 52.7905 104.824 98.8272 53.4706 104.729 99.7135 
54.0082 104.578 100.502 54.2182 104.295 101.501 54.2771 103.835 102.675 
51.8799 105.281 97.7158 52.5171 105.358 98.6175 53.1998 105.364 99.5222 
[...]
POINT_DATA 1002
SCALARS Color_Map_Phi float
LOOKUP_TABLE default
6.28319 3.14159 6.28319 3.14159 4.71239 4.71239 1.5708 1.5708 3.69517 
5.72961 2.58802 0.553574 6.28319 6.28319 6.28319 6.28319 3.14159 3.14159 
3.14159 3.14159 3.14159 6.1053 5.8988 5.67687 5.45995 5.26596 5.10322 
4.97131 4.86569 4.78095 0.177881 0.384387 0.606312 0.823235 1.01722 1.17997 
1.31187 1.4175 1.50223 6.18928 6.10703 6.03531 5.97283 5.91832 5.87061 
5.82869 5.79168 5.75886 0.0939024 0.176153 0.247873 0.310351 0.364864 0.412573 
0.454497 0.491504 0.524326 3.31947 3.52598 3.7479 3.96483 4.15881 4.32156 
4.45346 4.55909 4.64383 2.96371 2.75721 2.53528 2.31836 2.12437 1.96162 
1.82972 1.72409 1.63936 3.2355 3.31775 3.38947 3.45194 3.50646 3.55417 
3.59609 3.6331 3.66592 3.04769 2.96544 2.89372 2.83124 2.77673 2.72902 
2.6871 2.65009 2.61727 6.28319 6.28319 6.28319 6.28319 3.14159 3.14159 
3.14159 3.14159 3.14159 6.1053 5.8988 5.67687 5.45995 5.26596 5.10322 
4.97131 4.86569 4.78095 0.177881 0.384387 0.606312 0.823235 1.01722 1.17997 
1.31187 1.4175 1.50223 6.18928 6.10703 6.03531 5.97283 5.91832 5.87061 
5.82869 5.79168 5.75886 0.0939024 0.176153 0.247873 0.310351 0.364864 0.412573 
0.454497 0.491504 0.524326 3.31947 3.52598 3.7479 3.96483 4.15881 4.32156 
4.45346 4.55909 4.64383 2.96371 2.75721 2.53528 2.31836 2.12437 1.96162 
1.82972 1.72409 1.63936 3.2355 3.31775 3.38947 3.45194 3.50646 3.55417 
3.59609 3.6331 3.66592 3.04769 2.96544 2.89372 2.83124 2.77673 2.72902 
2.6871 2.65009 2.61727 4.71239 4.71239 4.71239 4.71239 4.71239 4.71239 
4.71239 4.71239 4.71239 4.60879 4.49914 4.3857 4.27128 4.15881 4.05096 
3.94976 3.85646 3.77161 4.81599 4.92564 5.03907 5.1535 5.26596 5.37381 
5.47502 5.56831 5.65317 4.60879 4.49914 4.3857 4.27128 4.15881 4.05096 
3.94976 3.85646 3.77161 4.81599 4.92564 5.03907 5.1535 5.26596 5.37381 
5.47502 5.56831 5.65317 1.5708 1.5708 1.5708 1.5708 1.5708 1.5708 
1.5708 1.5708 1.5708 1.6744 1.78405 1.89748 2.01191 2.12437 2.23222 
2.33343 2.42672 2.51157 1.4672 1.35755 1.24411 1.12969 1.01722 0.909371 
0.808166 0.714871 0.63002 1.6744 1.78405 1.89748 2.01191 2.12437 2.23222 
2.33343 2.42672 2.51157 1.4672 1.35755 1.24411 1.12969 1.01722 0.909371 
0.808166 0.714871 0.63002 3.60077 3.49669 3.38395 3.26458 3.14159 3.01861 
2.89924 2.78649 2.68241 5.82401 5.92808 6.04083 6.1602 6.28319 0.122983 
0.242354 0.355101 0.459179 6.05603 5.78856 5.97021 5.51259 5.60297 5.78856 
5.26596 5.26596 5.26596 5.26596 5.06749 5.0121 4.91556 4.71239 4.15881 
4.91556 4.83537 4.71239 4.50922 4.15881 3.63622 4.80045 4.71239 4.58941 
4.41268 4.15881 3.82181 3.45456 4.71239 4.62433 4.50922 4.35729 4.15881 
3.91219 3.63622 3.36875 6.01742 5.94343 5.82633 5.88092 5.76745 5.62798 
5.8278 5.71897 5.58911 5.43724 5.78235 5.67854 5.55757 5.41926 5.26596 
5.74316 5.64441 5.5315 5.40467 5.26596 5.11955 5.70914 5.61528 5.50962 
5.3926 5.26596 5.13292 4.99789 5.67937 5.59016 5.49102 5.38246 5.26596 
5.14407 5.02016 4.89798 5.56831 5.47502 5.47502 5.37381 5.37381 5.37381 
5.26596 5.26596 5.26596 5.26596 5.1535 5.1535 5.1535 5.1535 5.1535 
5.03907 5.03907 5.03907 5.03907 5.03907 5.03907 4.92564 4.92564 4.92564 
4.92564 4.92564 4.92564 4.92564 4.81599 4.81599 4.81599 4.81599 4.81599 
4.81599 4.81599 4.81599 4.60879 4.60879 4.49914 4.60879 4.49914 4.3857 
4.60879 4.49914 4.3857 4.27128 4.60879 4.49914 4.3857 4.27128 4.15881 
4.60879 4.49914 4.3857 4.27128 4.15881 4.05096 4.60879 4.49914 4.3857 
4.27128 4.15881 4.05096 3.94976 4.60879 4.49914 4.3857 4.27128 4.15881 
4.05096 3.94976 3.85646 4.5268 4.40462 4.42689 4.28071 4.29185 4.30523 
4.15881 4.15881 4.15881 4.15881 4.04232 4.03217 4.02011 4.00552 3.98753 
3.93376 3.91515 3.89328 3.86721 3.83566 3.7968 3.83461 3.8095 3.78037 
3.74624 3.70581 3.65733 3.59845 3.7454 3.71564 3.68161 3.64243 3.59698 
3.54386 3.48135 3.40735 3.56428 3.45246 3.52338 3.33203 3.40312 3.47739 
3.20576 3.27463 3.34802 3.42551 3.07742 3.14159 3.21128 3.28647 3.36688 
2.95116 3.00855 3.0719 3.14159 3.21784 3.3006 2.83072 2.88006 2.93517 
2.99672 3.06535 3.14159 3.22575 2.7189 2.7598 2.8058 2.85768 2.9163 
2.98259 3.05743 3.14159 3.56428 3.52338 3.45246 3.47739 3.40312 3.33203 
3.42551 3.34802 3.27463 3.20576 3.36688 3.28647 3.21128 3.14159 3.07742 
3.3006 3.21784 3.14159 3.0719 3.00855 2.95116 3.22575 3.14159 3.06535 
2.99672 2.93517 2.88006 2.83072 3.14159 3.05743 2.98259 2.9163 2.85768 
2.8058 2.7598 2.7189 4.5268 4.42689 4.40462 4.30523 4.29185 4.28071 
4.15881 4.15881 4.15881 4.15881 3.98753 4.00552 4.02011 4.03217 4.04232 
3.7968 3.83566 3.86721 3.89328 3.91515 3.93376 3.59845 3.65733 3.70581 
3.74624 3.78037 3.8095 3.83461 3.40735 3.48135 3.54386 3.59698 3.64243 
3.68161 3.71564 3.7454 4.71239 4.80045 4.62433 4.91556 4.71239 4.50922 
5.06749 4.83537 4.58941 4.35729 5.26596 5.0121 4.71239 4.41268 4.15881 
5.51259 5.26596 4.91556 4.50922 4.15881 3.91219 5.78856 5.60297 5.26596 
4.71239 4.15881 3.82181 3.63622 6.05603 5.97021 5.78856 5.26596 4.15881 
3.63622 3.45456 3.36875 0.227158 0.494626 0.312971 0.770593 0.680215 0.494626 
1.01722 1.01722 1.01722 1.01722 1.2157 1.27109 1.36763 1.5708 2.12437 
1.36763 1.44781 1.5708 1.77397 2.12437 2.64697 1.48273 1.5708 1.69378 
1.8705 2.12437 2.46138 2.82862 1.5708 1.65886 1.77397 1.9259 2.12437 
2.371 2.64697 2.91443 1.75639 1.87857 1.8563 2.00248 1.99133 1.97796 
2.12437 2.12437 2.12437 2.12437 2.24087 2.25101 2.26308 2.27767 2.29565 
2.34943 2.36803 2.38991 2.41597 2.44752 2.48639 2.44857 2.47368 2.50281 
2.53694 2.57738 2.62586 2.68474 2.53778 2.56754 2.60157 2.64076 2.68621 
2.73933 2.80184 2.87583 1.6744 1.6744 1.78405 1.6744 1.78405 1.89748 
1.6744 1.78405 1.89748 2.01191 1.6744 1.78405 1.89748 2.01191 2.12437 
1.6744 1.78405 1.89748 2.01191 2.12437 2.23222 1.6744 1.78405 1.89748 
2.01191 2.12437 2.23222 2.33343 1.6744 1.78405 1.89748 2.01191 2.12437 
2.23222 2.33343 2.42672 1.4672 1.35755 1.4672 1.24411 1.35755 1.4672 
1.12969 1.24411 1.35755 1.4672 1.01722 1.12969 1.24411 1.35755 1.4672 
0.909371 1.01722 1.12969 1.24411 1.35755 1.4672 0.808166 0.909371 1.01722 
1.12969 1.24411 1.35755 1.4672 0.714871 0.808166 0.909371 1.01722 1.12969 
1.24411 1.35755 1.4672 0.603812 0.57405 0.693022 0.540021 0.667908 0.792164 
0.500837 0.638778 0.773562 0.900726 0.455383 0.604649 0.751687 0.890581 1.01722 
0.402264 0.564217 0.725619 0.878514 1.01722 1.13912 0.339753 0.515737 0.694072 
0.863926 1.01722 1.15026 1.26302 0.265762 0.456853 0.655207 0.845941 1.01722 
1.16363 1.28529 1.38521 0.227158 0.312971 0.494626 0.494626 0.680215 0.770593 
1.01722 1.01722 1.01722 1.01722 2.12437 1.5708 1.36763 1.27109 1.2157 
2.64697 2.12437 1.77397 1.5708 1.44781 1.36763 2.82862 2.46138 2.12437 
1.8705 1.69378 1.5708 1.48273 2.91443 2.64697 2.371 2.12437 1.9259 
1.77397 1.65886 1.5708 1.75639 1.8563 1.87857 1.97796 1.99133 2.00248 
2.12437 2.12437 2.12437 2.12437 2.29565 2.27767 2.26308 2.25101 2.24087 
2.48639 2.44752 2.41597 2.38991 2.36803 2.34943 2.68474 2.62586 2.57738 
2.53694 2.50281 2.47368 2.44857 2.87583 2.80184 2.73933 2.68621 2.64076 
2.60157 2.56754 2.53778 5.86049 5.90139 5.97231 5.94739 6.02165 6.09275 
5.99927 6.07676 6.15015 6.21902 6.0579 6.13831 6.2135 0 0.0641696 
6.12418 6.20694 6.28319 0.069689 0.13304 0.190437 6.19903 0 0.0762451 
0.144876 0.206423 0.261531 0.310872 0 0.0841597 0.159004 0.225289 0.283913 
0.335793 0.381792 0.422692 5.86049 5.97231 5.90139 6.09275 6.02165 5.94739 
6.21902 6.15015 6.07676 5.99927 0.0641696 0 6.2135 6.13831 6.0579 
0.190437 0.13304 0.069689 6.28319 6.20694 6.12418 0.310872 0.261531 0.206423 
0.144876 0.0762451 6.28319 6.19903 0.422692 0.381792 0.335793 0.283913 0.225289 
0.159004 0.0841597 0 5.67937 5.70914 5.59016 5.74316 5.61528 5.49102 
5.78235 5.64441 5.50962 5.38246 5.8278 5.67854 5.5315 5.3926 5.26596 
5.88092 5.71897 5.55757 5.40467 5.26596 5.14407 5.94343 5.76745 5.58911 
5.41926 5.26596 5.13292 5.02016 6.01742 5.82633 5.62798 5.43724 5.26596 
5.11955 4.99789 4.89798 1.38521 1.28529 1.26302 1.16363 1.15026 1.13912 
1.01722 1.01722 1.01722 1.01722 0.845941 0.863926 0.878514 0.890581 0.900726 
0.655207 0.694072 0.725619 0.751687 0.773562 0.792164 0.456853 0.515737 0.564217 
0.604649 0.638778 0.667908 0.693022 0.265762 0.339753 0.402264 0.455383 0.500837 
0.540021 0.57405 0.603812 
