# vtk DataFile Version 4.1
vtk output
ASCII
DATASET POLYDATA
POINTS 1002 float
46.6036 93.6353 95.9774 46.7213 96.8325 106.188 43.618 104.533 91.3251 
43.8359 106.381 101.028 51.385 99.8959 100.515 50.8281 105.025 97.2186 
39.9028 96.7483 101.263 38.1625 102.335 98.2873 50.3812 103.758 106.419 
49.306 99.9916 90.8211 40.7962 101.865 106.108 41.1138 97.8119 91.635 
46.4782 94.351 96.7626 46.3008 95.0811 97.6655 46.1654 95.7324 98.7598 
46.2252 96.0707 100.047 46.3991 96.1578 101.342 46.4967 96.283 102.565 
46.6011 96.3314 103.784 46.736 96.2843 104.856 46.7635 96.453 105.632 
46.7516 94.3561 96.1212 46.8748 95.2914 96.3968 47.1496 96.1926 96.8405 
47.6005 96.9954 97.4305 48.1284 97.7358 98.1489 48.8035 98.2806 98.9083 
49.6065 98.6837 99.4891 50.329 99.0749 99.8627 50.8942 99.4923 100.184 
46.2355 93.6484 96.3849 45.6913 93.8861 96.8291 45.0633 94.247 97.2881 
44.351 94.7222 97.7909 43.5981 95.2295 98.3852 42.8596 95.6308 99.0849 
42.0812 95.995 99.8257 41.2738 96.3156 100.464 40.5322 96.5462 100.93 
46.8472 93.2773 95.3485 47.1464 93.2006 94.8353 47.405 93.873 94.4115 
47.6862 94.9255 93.9123 48.0187 95.8603 93.3232 48.3126 96.8088 92.6928 
48.5535 97.7742 92.0746 48.8246 98.5804 91.555 49.1049 99.2829 91.1483 
46.4635 92.9477 95.4736 46.1256 92.6641 94.9114 45.6113 93.0155 94.3495 
45.047 93.7688 93.8109 44.4041 94.5859 93.3148 43.6546 95.3467 92.8857 
42.8908 96.0015 92.456 42.1696 96.6084 92.0607 41.5829 97.2228 91.8011 
47.346 97.0626 105.906 47.9423 97.3086 105.509 48.5309 97.651 105.061 
49.1057 98.0872 104.486 49.6472 98.4622 103.765 50.1629 98.7912 103.127 
50.612 99.1499 102.584 50.9202 99.4489 101.912 51.1753 99.663 101.167 
46.0892 96.3785 106.035 45.4292 96.0498 105.774 44.7331 96.0001 105.332 
43.917 96.0924 104.762 43.0124 96.1556 104.206 42.1686 96.2149 103.632 
41.3679 96.2622 103.007 40.687 96.3618 102.392 40.1878 96.5195 101.829 
47.0534 97.4359 106.524 47.398 98.11 106.823 47.7694 98.863 107.045 
48.2555 99.6176 107.275 48.7847 100.358 107.436 49.2754 101.136 107.419 
49.7361 101.96 107.331 50.0974 102.74 107.171 50.3062 103.346 106.858 
46.2252 97.06 106.535 45.629 97.491 106.77 44.9533 98.0262 106.955 
44.2645 98.5804 107.107 43.5747 99.1156 107.156 42.8546 99.6792 107.082 
42.1515 100.266 106.972 41.5508 100.842 106.804 41.1232 101.391 106.479 
43.5876 104.858 92.1203 43.5601 105.25 92.9978 43.5352 105.623 93.9373 
43.4823 106.029 94.9349 43.4542 106.4 95.961 43.4617 106.572 97.0425 
43.482 106.634 98.2643 43.558 106.664 99.4412 43.6913 106.59 100.357 
44.2128 104.665 91.5998 44.8988 104.756 92.0184 45.6369 104.847 92.5614 
46.4295 104.946 93.199 47.2433 105.02 93.9296 47.9815 105.044 94.6784 
48.755 105.077 95.4023 49.5541 105.12 96.0668 50.2722 105.115 96.6592 
43.0703 104.489 91.6963 42.5496 104.34 92.2626 42.0439 104.146 92.9708 
41.5421 103.947 93.8007 40.9885 103.763 94.6389 40.376 103.509 95.444 
39.8173 103.198 96.2809 39.3448 102.887 97.1081 38.7649 102.594 97.7652 
43.9913 104.39 90.6783 44.466 104.235 90.0712 45.1622 103.97 89.5575 
46.0278 103.624 89.2549 46.8772 103.192 89.2199 47.5839 102.59 89.4249 
48.1318 101.891 89.7758 48.6169 101.237 90.1156 49.0022 100.608 90.4892 
43.278 104.237 90.7539 42.8784 103.89 90.2108 42.3575 103.4 89.7673 
41.8845 102.722 89.6145 41.5588 101.878 89.7993 41.2859 100.979 90.1365 
41.0579 100.109 90.4647 40.9895 99.2756 90.8456 41.032 98.4998 91.2653 
44.5273 106.48 100.816 45.3569 106.498 100.51 46.3354 106.579 100.152 
47.3237 106.635 99.7302 48.1053 106.512 99.1988 48.7341 106.225 98.6827 
49.3717 105.911 98.2633 49.9612 105.616 97.8922 50.449 105.335 97.5351 
43.0789 106.306 100.801 42.2891 106.145 100.544 41.5558 105.891 100.283 
40.9086 105.502 99.9896 40.2372 105.056 99.611 39.5996 104.602 99.2231 
39.1521 104.016 98.9139 38.7896 103.384 98.6913 38.4262 102.83 98.4911 
44.3539 106.199 101.54 44.9674 105.974 102.117 45.7283 105.714 102.732 
46.479 105.489 103.379 47.178 105.227 104.027 47.9065 104.917 104.619 
48.6167 104.65 105.197 49.2861 104.375 105.716 49.8815 104.072 106.121 
43.5238 106.017 101.501 43.2251 105.576 102.004 42.899 105.156 102.614 
42.4514 104.855 103.406 41.9827 104.558 104.184 41.629 104.116 104.8 
41.3459 103.559 105.273 41.1118 102.984 105.621 40.9376 102.425 105.88 
51.8151 100.29 100.317 52.2616 100.697 100.01 52.7054 101.125 99.5638 
53.0543 101.626 99.0147 53.1036 102.32 98.5034 52.7847 103.09 98.1585 
52.3634 103.741 97.9166 51.8724 104.245 97.673 51.339 104.681 97.4132 
51.7623 100.152 101.251 52.2154 100.373 102.062 52.6668 100.518 102.929 
52.9841 100.776 103.916 53.0154 101.324 104.79 52.8222 101.933 105.435 
52.3809 102.52 105.876 51.7865 103.094 106.19 51.1023 103.523 106.352 
51.2477 99.9221 99.6855 51.026 99.9364 98.7627 50.7501 99.8774 97.7831 
50.4167 99.8507 96.7697 50.0349 99.9304 95.7147 49.7784 99.9437 94.6313 
49.7168 99.8335 93.4833 49.694 99.7764 92.3161 49.6109 99.8135 91.3712 
51.1077 105.067 98.0365 51.389 105.08 99.0166 51.6338 105.05 100.071 
51.7304 104.868 101.139 51.6908 104.62 102.244 51.5899 104.431 103.342 
51.4352 104.277 104.333 51.1918 104.115 105.182 50.823 103.946 105.867 
50.8169 104.723 96.5717 50.7114 104.339 95.8829 50.5567 103.947 95.1348 
50.4212 103.541 94.3107 50.2578 103.037 93.474 50.0427 102.454 92.7187 
49.8379 101.88 92.0678 49.7089 101.264 91.4264 49.5887 100.606 90.9467 
39.3485 97.0688 101.022 38.7142 97.435 100.752 38.1599 97.8454 100.519 
37.6699 98.3509 100.197 37.2734 98.9896 99.7458 37.2652 99.7434 99.3863 
37.4749 100.499 99.1057 37.6193 101.214 98.8071 37.7851 101.837 98.5116 
39.4701 96.8548 101.927 39.1544 97.103 102.669 38.9886 97.5359 103.355 
38.9176 98.0322 103.948 38.999 98.6057 104.499 39.2082 99.288 105.001 
39.5059 100.001 105.397 39.8776 100.673 105.742 40.3237 101.309 105.998 
40.0751 96.8575 100.454 40.2925 96.9276 99.5535 40.5219 96.9402 98.6009 
40.7817 96.9659 97.5325 41.0187 97.0119 96.4108 41.1516 97.0515 95.3023 
41.1664 97.069 94.1967 41.0826 97.1522 93.1183 41.0369 97.4107 92.2452 
37.7899 102.392 98.9477 37.6116 102.454 99.7645 37.6117 102.472 100.773 
37.6894 102.431 101.877 37.9197 102.383 102.953 38.3101 102.35 103.867 
38.8459 102.253 104.578 39.5142 102.121 105.167 40.194 101.983 105.66 
38.366 101.975 97.7404 38.6236 101.56 97.1011 38.9157 101.108 96.394 
39.2278 100.61 95.6084 39.5514 100.043 94.8014 39.8952 99.5011 94.0409 
40.2285 99.0333 93.2547 40.4739 98.5602 92.4862 40.7101 98.1375 91.9224 
49.5446 103.703 106.718 48.5776 103.61 106.98 47.4936 103.494 107.237 
46.3032 103.355 107.454 45.1033 103.192 107.542 44.0335 102.985 107.451 
43.1173 102.71 107.174 42.2816 102.401 106.792 41.498 102.115 106.424 
48.6193 99.8317 90.7612 47.7052 99.7095 90.849 46.8364 99.5115 90.9073 
46.0952 99.2135 90.9061 45.2356 98.9319 90.965 44.2625 98.7116 91.0775 
43.4246 98.5063 91.2048 42.6072 98.2681 91.3171 41.7457 97.9982 91.4 
46.6421 95.0893 96.9794 46.8696 95.8978 97.3693 46.5447 95.7626 98.0261 
47.2863 96.6367 97.9375 46.9426 96.383 98.565 46.5606 96.2465 99.2998 
47.8073 97.3681 98.655 47.4974 96.9918 99.2617 47.1194 96.7046 99.9558 
46.7421 96.435 100.674 48.4023 98.0163 99.4736 48.066 97.6654 100.092 
47.7535 97.2412 100.717 47.3453 96.8779 101.359 46.9394 96.5268 101.966 
49.1864 98.476 100.127 48.7129 98.2574 100.822 48.388 97.8119 101.442 
48.0382 97.3471 102.044 47.579 96.9601 102.645 47.1134 96.6162 103.201 
50.0186 98.8373 100.519 49.5407 98.6787 101.248 49.0964 98.3216 101.895 
48.7623 97.8117 102.516 48.3355 97.3543 103.192 47.828 96.9559 103.82 
47.3015 96.6135 104.359 50.6561 99.232 100.832 50.3269 99.0309 101.558 
49.8934 98.7453 102.213 49.4629 98.3239 102.805 49.0262 97.8882 103.495 
48.5223 97.4344 104.203 47.9747 97.0305 104.784 47.3876 96.7147 105.259 
46.9456 94.2588 95.5094 47.172 94.5305 95.0032 47.0599 95.458 95.8211 
47.4839 95.2614 94.5833 47.3327 95.8491 95.3296 47.409 96.4666 96.3072 
47.8919 96.0468 94.1099 47.7383 96.4128 94.9212 47.7726 96.8414 95.8395 
47.9205 97.343 96.9475 48.3185 96.814 93.538 48.2012 97.0395 94.4796 
48.2119 97.3381 95.4251 48.3239 97.7456 96.5138 48.5081 98.1036 97.7135 
48.6801 97.6769 92.8787 48.6472 97.777 93.9223 48.6855 97.9387 94.9741 
48.7923 98.2072 96.08 48.937 98.5257 97.2986 49.2343 98.6566 98.4624 
49.0257 98.4583 92.2607 49.0338 98.5236 93.3285 49.0886 98.6362 94.4616 
49.2309 98.7438 95.5793 49.3846 98.9428 96.8034 49.616 99.1194 97.9934 
49.9909 99.1196 98.9944 49.3599 99.1405 91.7528 49.3921 99.1632 92.7867 
49.403 99.2816 93.9707 49.5301 99.3642 95.0832 49.7755 99.3803 96.2256 
50.0324 99.4832 97.3966 50.3322 99.5811 98.4486 50.6625 99.5457 99.3493 
49.8338 100.481 91.7502 50.0744 101.115 92.2695 49.999 100.401 92.7959 
50.319 101.721 92.9278 50.3365 101.004 93.3726 50.1009 100.433 94.0204 
50.6055 102.354 93.651 50.7082 101.606 94.0391 50.5753 100.997 94.6244 
50.3016 100.485 95.2208 50.885 102.975 94.4478 51.1212 102.237 94.7446 
51.1076 101.507 95.2489 50.9706 100.924 95.8058 50.7357 100.358 96.2935 
51.1091 103.496 95.228 51.5597 102.871 95.4014 51.6814 102.078 95.8118 
51.6492 101.35 96.3278 51.5086 100.733 96.7767 51.1926 100.228 97.2502 
51.2481 103.935 96.0086 51.8072 103.442 96.1538 52.1624 102.719 96.4178 
52.2834 101.882 96.85 52.2138 101.163 97.3163 51.9157 100.634 97.7654 
51.4899 100.249 98.2884 51.3383 104.341 96.7397 51.8785 103.89 96.9489 
52.3613 103.309 97.1701 52.686 102.525 97.4758 52.7884 101.713 97.9143 
52.553 101.11 98.4373 52.1311 100.676 98.9411 51.683 100.298 99.3739 
52.243 100.566 101.031 52.6902 100.992 100.647 52.6899 100.769 101.754 
53.0959 101.501 100.154 53.0545 101.27 101.36 53.0815 100.993 102.68 
53.3247 102.163 99.6224 53.3325 102.002 100.931 53.3279 101.735 102.355 
53.2849 101.49 103.741 53.1344 102.938 99.1595 53.3217 102.827 100.454 
53.3718 102.674 101.927 53.3891 102.433 103.396 53.2102 102.163 104.596 
52.6841 103.625 98.8761 52.9664 103.555 100.044 53.1384 103.461 101.437 
53.2115 103.296 102.857 53.1253 103.049 104.141 52.8255 102.758 105.156 
52.202 104.185 98.6016 52.4916 104.128 99.6827 52.6802 104.034 100.928 
[...]
POINT_DATA 1002
SCALARS Color_Map_Phi float
LOOKUP_TABLE default
6.28319 3.14159 6.28319 3.14159 4.71239 4.71239 1.5708 1.5708 3.69517 
5.72961 2.58802 0.553574 6.28319 6.28319 6.28319 6.28319 3.14159 3.14159 
3.14159 3.14159 3.14159 6.1053 5.8988 5.67687 5.45995 5.26596 5.10322 
4.97131 4.86569 4.78095 0.177881 0.384387 0.606312 0.823235 1.01722 1.17997 
1.31187 1.4175 1.50223 6.18928 6.10703 6.03531 5.97283 5.91832 5.87061 
5.82869 5.79168 5.75886 0.0939024 0.176153 0.247873 0.310351 0.364864 0.412573 
0.454497 0.491504 0.524326 3.31947 3.52598 3.7479 3.96483 4.15881 4.32156 
4.45346 4.55909 4.64383 2.96371 2.75721 2.53528 2.31836 2.12437 1.96162 
1.82972 1.72409 1.63936 3.2355 3.31775 3.38947 3.45194 3.50646 3.55417 
3.59609 3.6331 3.66592 3.04769 2.96544 2.89372 2.83124 2.77673 2.72902 
2.6871 2.65009 2.61727 6.28319 6.28319 6.28319 6.28319 3.14159 3.14159 
3.14159 3.14159 3.14159 6.1053 5.8988 5.67687 5.45995 5.26596 5.10322 
4.97131 4.86569 4.78095 0.177881 0.384387 0.606312 0.823235 1.01722 1.17997 
1.31187 1.4175 1.50223 6.18928 6.10703 6.03531 5.97283 5.91832 5.87061 
5.82869 5.79168 5.75886 0.0939024 0.176153 0.247873 0.310351 0.364864 0.412573 
0.454497 0.491504 0.524326 3.31947 3.52598 3.7479 3.96483 4.15881 4.32156 
4.45346 4.55909 4.64383 2.96371 2.75721 2.53528 2.31836 2.12437 1.96162 
1.82972 1.72409 1.63936 3.2355 3.31775 3.38947 3.45194 3.50646 3.55417 
3.59609 3.6331 3.66592 3.04769 2.96544 2.89372 2.83124 2.77673 2.72902 
2.6871 2.65009 2.61727 4.71239 4.71239 4.71239 4.71239 4.71239 4.71239 
4.71239 4.71239 4.71239 4.60879 4.49914 4.3857 4.27128 4.15881 4.05096 
3.94976 3.85646 3.77161 4.81599 4.92564 5.03907 5.1535 5.26596 5.37381 
5.47502 5.56831 5.65317 4.60879 4.49914 4.3857 4.27128 4.15881 4.05096 
3.94976 3.85646 3.77161 4.81599 4.92564 5.03907 5.1535 5.26596 5.37381 
5.47502 5.56831 5.65317 1.5708 1.5708 1.5708 1.5708 1.5708 1.5708 
1.5708 1.5708 1.5708 1.6744 1.78405 1.89748 2.01191 2.12437 2.23222 
2.33343 2.42672 2.51157 1.4672 1.35755 1.24411 1.12969 1.01722 0.909371 
0.808166 0.714871 0.63002 1.6744 1.78405 1.89748 2.01191 2.12437 2.23222 
2.33343 2.42672 2.51157 1.4672 1.35755 1.24411 1.12969 1.01722 0.909371 
0.808166 0.714871 0.63002 3.60077 3.49669 3.38395 3.26458 3.14159 3.01861 
2.89924 2.78649 2.68241 5.82401 5.92808 6.04083 6.1602 6.28319 0.122983 
0.242354 0.355101 0.459179 6.05603 5.78856 5.97021 5.51259 5.60297 5.78856 
5.26596 5.26596 5.26596 5.26596 5.06749 5.0121 4.91556 4.71239 4.15881 
4.91556 4.83537 4.71239 4.50922 4.15881 3.63622 4.80045 4.71239 4.58941 
4.41268 4.15881 3.82181 3.45456 4.71239 4.62433 4.50922 4.35729 4.15881 
3.91219 3.63622 3.36875 6.01742 5.94343 5.82633 5.88092 5.76745 5.62798 
5.8278 5.71897 5.58911 5.43724 5.78235 5.67854 5.55757 5.41926 5.26596 
5.74316 5.64441 5.5315 5.40467 5.26596 5.11955 5.70914 5.61528 5.50962 
5.3926 5.26596 5.13292 4.99789 5.67937 5.59016 5.49102 5.38246 5.26596 
5.14407 5.02016 4.89798 5.56831 5.47502 5.47502 5.37381 5.37381 5.37381 
5.26596 5.26596 5.26596 5.26596 5.1535 5.1535 5.1535 5.1535 5.1535 
5.03907 5.03907 5.03907 5.03907 5.03907 5.03907 4.92564 4.92564 4.92564 
4.92564 4.92564 4.92564 4.92564 4.81599 4.81599 4.81599 4.81599 4.81599 
4.81599 4.81599 4.81599 4.60879 4.60879 4.49914 4.60879 4.49914 4.3857 
4.60879 4.49914 4.3857 4.27128 4.60879 4.49914 4.3857 4.27128 4.15881 
4.60879 4.49914 4.3857 4.27128 4.15881 4.05096 4.60879 4.49914 4.3857 
4.27128 4.15881 4.05096 3.94976 4.60879 4.49914 4.3857 4.27128 4.15881 
4.05096 3.94976 3.85646 4.5268 4.40462 4.42689 4.28071 4.29185 4.30523 
4.15881 4.15881 4.15881 4.15881 4.04232 4.03217 4.02011 4.00552 3.98753 
3.93376 3.91515 3.89328 3.86721 3.83566 3.7968 3.83461 3.8095 3.78037 
3.74624 3.70581 3.65733 3.59845 3.7454 3.71564 3.68161 3.64243 3.59698 
3.54386 3.48135 3.40735 3.56428 3.45246 3.52338 3.33203 3.40312 3.47739 
3.20576 3.27463 3.34802 3.42551 3.07742 3.14159 3.21128 3.28647 3.36688 
2.95116 3.00855 3.0719 3.14159 3.21784 3.3006 2.83072 2.88006 2.93517 
2.99672 3.06535 3.14159 3.22575 2.7189 2.7598 2.8058 2.85768 2.9163 
2.98259 3.05743 3.14159 3.56428 3.52338 3.45246 3.47739 3.40312 3.33203 
3.42551 3.34802 3.27463 3.20576 3.36688 3.28647 3.21128 3.14159 3.07742 
3.3006 3.21784 3.14159 3.0719 3.00855 2.95116 3.22575 3.14159 3.06535 
2.99672 2.93517 2.88006 2.83072 3.14159 3.05743 2.98259 2.9163 2.85768 
2.8058 2.7598 2.7189 4.5268 4.42689 4.40462 4.30523 4.29185 4.28071 
4.15881 4.15881 4.15881 4.15881 3.98753 4.00552 4.02011 4.03217 4.04232 
3.7968 3.83566 3.86721 3.89328 3.91515 3.93376 3.59845 3.65733 3.70581 
3.74624 3.78037 3.8095 3.83461 3.40735 3.48135 3.54386 3.59698 3.64243 
3.68161 3.71564 3.7454 4.71239 4.80045 4.62433 4.91556 4.71239 4.50922 
5.06749 4.83537 4.58941 4.35729 5.26596 5.0121 4.71239 4.41268 4.15881 
5.51259 5.26596 4.91556 4.50922 4.15881 3.91219 5.78856 5.60297 5.26596 
4.71239 4.15881 3.82181 3.63622 6.05603 5.97021 5.78856 5.26596 4.15881 
3.63622 3.45456 3.36875 0.227158 0.494626 0.312971 0.770593 0.680215 0.494626 
1.01722 1.01722 1.01722 1.01722 1.2157 1.27109 1.36763 1.5708 2.12437 
1.36763 1.44781 1.5708 1.77397 2.12437 2.64697 1.48273 1.5708 1.69378 
1.8705 2.12437 2.46138 2.82862 1.5708 1.65886 1.77397 1.9259 2.12437 
2.371 2.64697 2.91443 1.75639 1.87857 1.8563 2.00248 1.99133 1.97796 
2.12437 2.12437 2.12437 2.12437 2.24087 2.25101 2.26308 2.27767 2.29565 
2.34943 2.36803 2.38991 2.41597 2.44752 2.48639 2.44857 2.47368 2.50281 
2.53694 2.57738 2.62586 2.68474 2.53778 2.56754 2.60157 2.64076 2.68621 
2.73933 2.80184 2.87583 1.6744 1.6744 1.78405 1.6744 1.78405 1.89748 
1.6744 1.78405 1.89748 2.01191 1.6744 1.78405 1.89748 2.01191 2.12437 
1.6744 1.78405 1.89748 2.01191 2.12437 2.23222 1.6744 1.78405 1.89748 
2.01191 2.12437 2.23222 2.33343 1.6744 1.78405 1.89748 2.01191 2.12437 
2.23222 2.33343 2.42672 1.4672 1.35755 1.4672 1.24411 1.35755 1.4672 
1.12969 1.24411 1.35755 1.4672 1.01722 1.12969 1.24411 1.35755 1.4672 
0.909371 1.01722 1.12969 1.24411 1.35755 1.4672 0.808166 0.909371 1.01722 
1.12969 1.24411 1.35755 1.4672 0.714871 0.808166 0.909371 1.01722 1.12969 
1.24411 1.35755 1.4672 0.603812 0.57405 0.693022 0.540021 0.667908 0.792164 
0.500837 0.638778 0.773562 0.900726 0.455383 0.604649 0.751687 0.890581 1.01722 
0.402264 0.564217 0.725619 0.878514 1.01722 1.13912 0.339753 0.515737 0.694072 
0.863926 1.01722 1.15026 1.26302 0.265762 0.456853 0.655207 0.845941 1.01722 
1.16363 1.28529 1.38521 0.227158 0.312971 0.494626 0.494626 0.680215 0.770593 
1.01722 1.01722 1.01722 1.01722 2.12437 1.5708 1.36763 1.27109 1.2157 
2.64697 2.12437 1.77397 1.5708 1.44781 1.36763 2.82862 2.46138 2.12437 
1.8705 1.69378 1.5708 1.48273 2.91443 2.64697 2.371 2.12437 1.9259 
1.77397 1.65886 1.5708 1.75639 1.8563 1.87857 1.97796 1.99133 2.00248 
2.12437 2.12437 2.12437 2.12437 2.29565 2.27767 2.26308 2.25101 2.24087 
2.48639 2.44752 2.41597 2.38991 2.36803 2.34943 2.68474 2.62586 2.57738 
2.53694 2.50281 2.47368 2.44857 2.87583 2.80184 2.73933 2.68621 2.64076 
2.60157 2.56754 2.53778 5.86049 5.90139 5.97231 5.94739 6.02165 6.09275 
5.99927 6.07676 6.15015 6.21902 6.0579 6.13831 6.2135 0 0.0641696 
6.12418 6.20694 6.28319 0.069689 0.13304 0.190437 6.19903 0 0.0762451 
0.144876 0.206423 0.261531 0.310872 0 0.0841597 0.159004 0.225289 0.283913 
0.335793 0.381792 0.422692 5.86049 5.97231 5.90139 6.09275 6.02165 5.94739 
6.21902 6.15015 6.07676 5.99927 0.0641696 0 6.2135 6.13831 6.0579 
0.190437 0.13304 0.069689 6.28319 6.20694 6.12418 0.310872 0.261531 0.206423 
0.144876 0.0762451 6.28319 6.19903 0.422692 0.381792 0.335793 0.283913 0.225289 
0.159004 0.0841597 0 5.67937 5.70914 5.59016 5.74316 5.61528 5.49102 
5.78235 5.64441 5.50962 5.38246 5.8278 5.67854 5.5315 5.3926 5.26596 
5.88092 5.71897 5.55757 5.40467 5.26596 5.14407 5.94343 5.76745 5.58911 
5.41926 5.26596 5.13292 5.02016 6.01742 5.82633 5.62798 5.43724 5.26596 
5.11955 4.99789 4.89798 1.38521 1.28529 1.26302 1.16363 1.15026 1.13912 
1.01722 1.01722 1.01722 1.01722 0.845941 0.863926 0.878514 0.890581 0.900726 
0.655207 0.694072 0.725619 0.751687 0.773562 0.792164 0.456853 0.515737 0.564217 
0.604649 0.638778 0.667908 0.693022 0.265762 0.339753 0.402264 0.455383 0.500837 
0.540021 0.57405 0.603812 
