# vtk DataFile Version 4.1
vtk output
ASCII
DATASET POLYDATA
POINTS 1002 float
46.233 95.509 96.3347 47.5279 101.333 105.186 43.6467 103.294 94.9314 
45.5853 106.557 102.866 52.0238 101.737 98.9127 51.1884 105.797 96.9188 
40.5869 98.2104 103.459 38.3796 103.04 101.552 53.6051 104.66 106.116 
47.5924 100.151 90.5486 43.2009 103.534 108.984 41.2569 97.599 94.5022 
46.1785 96.3989 96.9928 46.1852 97.274 97.8276 46.2203 98.1347 98.7419 
46.242 98.9455 99.6596 46.3147 99.6371 100.684 46.4709 100.227 101.744 
46.6248 100.767 102.655 46.7949 101.173 103.54 47.0921 101.357 104.445 
46.4154 96.1895 96.3263 46.6984 96.9843 96.4174 47.0696 97.7961 96.6207 
47.4893 98.6906 96.9376 48.0028 99.6156 97.3164 48.5941 100.386 97.7046 
49.2888 101.062 98.0913 50.1917 101.619 98.4376 51.1739 101.825 98.705 
45.9755 95.5732 96.7834 45.5968 95.8115 97.3254 45.0845 96.1436 97.9722 
44.4761 96.4738 98.7536 43.7901 96.8306 99.6345 43.0659 97.2008 100.484 
42.3576 97.5183 101.313 41.6825 97.8259 102.164 41.0888 98.0879 102.899 
46.4327 94.9343 95.7228 46.671 94.4322 95.1161 46.9051 94.3203 94.5025 
47.0977 94.7496 93.8437 47.2624 95.5243 93.1488 47.3661 96.4931 92.4954 
47.3769 97.5533 91.9233 47.3702 98.5368 91.4123 47.4414 99.3943 90.9523 
46.1548 94.5702 96.0385 45.8532 93.7917 95.7663 45.2935 93.4733 95.4527 
44.7284 93.7256 95.0749 44.2223 94.336 94.703 43.6369 95.0784 94.4421 
43.0041 95.8287 94.2877 42.3705 96.4922 94.2406 41.7611 97.0737 94.336 
48.1778 101.471 104.847 48.8492 101.654 104.486 49.4392 101.845 104.056 
49.9831 101.988 103.449 50.573 102.02 102.675 51.0914 101.939 101.861 
51.4606 101.9 101.029 51.7615 101.909 100.209 51.9623 101.84 99.5026 
46.6755 101.198 105.102 45.9624 100.866 104.986 45.3173 100.361 104.833 
44.6628 99.7712 104.686 44.0238 99.1948 104.583 43.332 98.7266 104.53 
42.5533 98.3333 104.417 41.7961 98.0722 104.14 41.1351 98.0656 103.79 
48.4811 101.229 105.585 49.5117 101.014 105.971 50.4752 100.832 106.406 
51.4065 100.902 106.834 52.3246 101.306 107.118 53.0473 101.908 107.215 
53.4565 102.63 107.126 53.6199 103.422 106.859 53.6448 104.121 106.496 
47.4474 101.153 105.784 47.3702 100.911 106.471 47.2606 100.702 107.248 
46.9663 100.767 107.943 46.4098 101.132 108.484 45.7326 101.531 108.887 
45.0177 101.963 109.076 44.297 102.527 109.099 43.6776 103.09 109.073 
43.6991 103.737 95.5455 43.7999 104.171 96.287 43.8804 104.664 97.0418 
43.9358 105.242 97.7537 44.079 105.765 98.5279 44.305 106.167 99.3868 
44.5511 106.458 100.312 44.8507 106.6 101.266 45.2113 106.608 102.134 
44.1738 103.579 94.8357 44.7499 103.915 94.782 45.4143 104.258 94.7755 
46.1373 104.606 94.832 46.9114 104.983 94.9706 47.791 105.35 95.1922 
48.7238 105.622 95.5327 49.6292 105.746 95.9953 50.4645 105.78 96.4822 
43.1139 103.306 95.4222 42.5054 103.324 95.9831 41.8578 103.362 96.5902 
41.2099 103.369 97.2561 40.5659 103.321 97.9856 39.9394 103.302 98.7094 
39.3692 103.296 99.4029 38.8968 103.262 100.101 38.5651 103.192 100.82 
43.9432 103.005 94.2575 44.2183 102.75 93.4275 44.4727 102.548 92.4868 
44.7757 102.314 91.5716 45.1179 102.079 90.6701 45.5405 101.88 89.974 
46.1331 101.577 89.8297 46.7437 101.147 90.0781 47.2128 100.675 90.3456 
43.2897 102.864 94.6459 42.8558 102.459 94.3006 42.3311 102.059 93.9114 
41.8176 101.566 93.6219 41.442 100.91 93.5223 41.1807 100.126 93.5412 
41.0252 99.3295 93.6668 41.0276 98.6373 93.9266 41.1254 98.0711 94.2332 
46.1032 106.773 102.471 46.6532 106.971 101.954 47.402 106.97 101.241 
48.2259 106.903 100.465 48.9504 106.946 99.6976 49.6397 106.924 98.9423 
50.2176 106.728 98.3355 50.609 106.446 97.8585 50.9246 106.126 97.3803 
44.7166 106.464 102.865 43.7501 106.355 102.87 42.7954 106.138 102.79 
41.8694 105.88 102.661 41.0184 105.549 102.571 40.3277 105.029 102.46 
39.698 104.525 102.266 39.0976 104.138 102.041 38.658 103.646 101.804 
46.3385 106.612 103.332 47.1752 106.707 103.864 48.1073 106.78 104.381 
49.1497 106.735 104.814 50.1926 106.57 105.162 51.1304 106.324 105.443 
52.0032 106.011 105.719 52.7483 105.632 105.969 53.258 105.175 106.097 
45.3998 106.464 103.587 45.1071 106.432 104.437 44.8136 106.307 105.287 
44.5403 106.056 106.058 44.2358 105.799 106.841 43.9793 105.464 107.553 
43.7975 105.001 108.061 43.5878 104.533 108.469 43.3567 104.063 108.817 
52.5023 101.672 98.6646 53.0075 101.808 98.3315 53.4483 102.157 97.8951 
53.5863 102.742 97.505 53.3694 103.458 97.3249 52.9976 104.109 97.2531 
52.6043 104.697 97.1274 52.1875 105.214 96.988 51.7162 105.57 96.9216 
52.787 101.58 99.4563 53.5719 101.489 100.059 54.3373 101.609 100.796 
54.8958 101.859 101.725 55.1234 102.272 102.817 55.1017 102.869 103.875 
54.873 103.398 104.666 54.4737 103.812 105.209 54.0344 104.244 105.68 
51.5153 101.71 98.1853 50.923 101.583 97.3124 50.326 101.335 96.2989 
49.8452 100.983 95.1874 49.4894 100.591 94.0334 49.2412 100.193 92.8879 
49.1087 99.8894 91.8101 48.8749 99.8192 90.9841 48.3284 99.9602 90.5919 
51.7305 105.992 97.6327 52.3039 106.133 98.4335 52.8751 106.189 99.3386 
53.3685 106.118 100.337 53.7199 105.928 101.395 53.8744 105.698 102.497 
53.8829 105.444 103.586 53.851 105.163 104.574 53.7731 104.902 105.419 
50.9344 105.426 96.2328 50.5736 104.966 95.5396 50.1642 104.423 94.7665 
49.748 103.848 93.8369 49.3308 103.261 92.8144 49.0006 102.633 91.7858 
48.8307 102.011 90.847 48.6436 101.407 90.2635 48.2072 100.778 90.2229 
39.9423 98.3152 103.56 39.1475 98.4044 103.667 38.3535 98.6545 103.714 
37.8545 99.1125 103.645 37.6389 99.7932 103.476 37.534 100.721 103.188 
37.618 101.563 102.75 37.8881 102.091 102.274 38.1576 102.542 101.875 
40.4473 98.2269 104.16 40.3657 98.43 104.905 40.36 98.8631 105.693 
40.4691 99.4439 106.419 40.7441 100.152 107.025 41.1975 100.958 107.537 
41.7257 101.714 107.989 42.207 102.373 108.43 42.6704 102.986 108.803 
40.4376 98.3345 102.698 40.3727 98.3586 101.672 40.2623 98.1663 100.58 
40.069 97.8233 99.6934 40.0238 97.5369 98.858 40.2408 97.3955 97.8188 
40.5462 97.3305 96.7429 40.8162 97.3289 95.8413 41.0523 97.4254 95.112 
38.4327 103.196 102.522 38.5184 103.376 103.624 38.6144 103.63 104.715 
38.8671 103.792 105.658 39.3974 103.796 106.484 40.0287 103.815 107.243 
40.6843 103.828 107.885 41.4993 103.735 108.379 42.392 103.618 108.737 
38.2385 102.532 100.817 38.1167 101.972 100.009 38.0249 101.37 99.1371 
38.0728 100.754 98.2646 38.3265 100.083 97.4482 38.718 99.3554 96.7206 
39.2715 98.7346 96.1056 39.975 98.3065 95.5627 40.666 97.9621 95.0291 
53.1225 104.702 106.724 52.4853 104.687 107.262 51.68 104.69 107.743 
50.5448 104.639 108.122 49.1949 104.456 108.39 47.9586 104.319 108.708 
46.6946 104.257 109.033 45.3246 104.085 109.164 44.1305 103.808 109.118 
46.7387 99.8243 90.8463 45.9988 99.3278 91.0281 45.3798 98.7406 91.1186 
44.6529 98.2514 91.3208 43.7253 97.8277 91.5069 42.9045 97.4362 91.6803 
42.4268 97.2644 92.2103 42.0893 97.3295 93.0259 41.6994 97.4728 93.8087 
46.4682 97.0905 97.1054 46.8379 97.837 97.3011 46.5755 97.963 98.0423 
47.2268 98.6327 97.5698 46.9711 98.6716 98.3013 46.6281 98.8248 98.9893 
47.7321 99.5324 97.9315 47.4541 99.459 98.6306 47.0925 99.5035 99.3168 
46.6886 99.6148 99.9806 48.3591 100.342 98.3412 48.1101 100.305 99.047 
47.7558 100.251 99.74 47.3114 100.26 100.402 46.902 100.262 101.095 
49.0208 101.027 98.7239 48.7612 101.011 99.4414 48.4596 100.989 100.154 
48.0317 100.936 100.823 47.621 100.865 101.497 47.166 100.815 102.118 
49.9005 101.675 99.0608 49.5598 101.625 99.7673 49.228 101.569 100.484 
48.7887 101.552 101.177 48.3454 101.461 101.887 47.9425 101.336 102.519 
47.3904 101.262 103.039 50.9834 101.983 99.323 50.6695 102.003 100.038 
50.3229 101.922 100.795 49.8787 101.929 101.534 49.3213 101.926 102.309 
48.8388 101.786 103.029 48.3433 101.619 103.565 47.7123 101.487 104.008 
46.5929 95.805 95.6902 46.8087 95.5676 95.0767 46.8714 96.77 95.7718 
47.0348 95.6679 94.4304 47.0664 96.7386 95.1468 47.2783 97.725 95.9953 
47.2927 96.0875 93.7139 47.2664 96.9859 94.4665 47.4723 97.8493 95.3274 
47.735 98.7615 96.3185 47.5526 96.7718 92.9699 47.5171 97.4678 93.7582 
47.6502 98.2018 94.6041 47.9256 98.9897 95.574 48.2372 99.7724 96.6791 
47.7646 97.6259 92.2589 47.8216 98.1059 93.0264 47.914 98.6855 93.9349 
48.1437 99.3029 94.8267 48.4274 100.013 95.9316 48.8356 100.574 97.0962 
47.9655 98.4305 91.61 48.2039 98.6783 92.2521 48.2973 99.1412 93.2332 
48.4921 99.614 94.1948 48.7255 100.197 95.2279 49.0871 100.76 96.425 
49.6312 101.192 97.5324 48.1654 99.1803 91.0435 48.6041 99.1764 91.534 
48.744 99.4766 92.4675 48.8886 99.9015 93.5481 49.1297 100.363 94.6271 
49.4513 100.862 95.7749 49.9617 101.271 96.913 50.5903 101.583 97.8958 
48.8604 100.656 90.4965 49.1468 101.397 90.8749 49.2547 100.57 91.2035 
49.3493 102.115 91.6767 49.5364 101.375 91.8158 49.484 100.639 92.2435 
49.6936 102.815 92.6636 49.9662 102.158 92.6824 49.9918 101.441 92.9351 
49.7862 100.913 93.4293 50.1435 103.445 93.6816 50.4964 102.886 93.6518 
50.6373 102.225 93.783 50.496 101.638 94.1411 50.2045 101.234 94.6676 
50.5945 104.026 94.6491 50.9996 103.524 94.6034 51.2589 102.929 94.6683 
51.2603 102.297 94.8996 51.0711 101.785 95.3456 50.7509 101.493 95.85 
51.0187 104.618 95.4977 51.4474 104.146 95.4875 51.8279 103.569 95.5319 
52.0294 102.92 95.6519 52.0178 102.29 95.9731 51.8062 101.886 96.4573 
51.4017 101.691 96.9173 51.4088 105.152 96.234 51.8388 104.738 96.2857 
52.265 104.179 96.3774 52.6398 103.544 96.453 52.8595 102.855 96.6075 
52.8261 102.265 96.9826 52.4945 101.918 97.4597 52.0032 101.746 97.8648 
53.3217 101.614 99.1974 53.8598 101.916 98.8181 54.169 101.746 99.765 
54.1964 102.485 98.3956 54.6434 102.259 99.3511 54.8357 102.097 100.469 
54.0727 103.277 98.1584 54.7433 103.017 99.0257 55.0683 102.822 100.075 
55.0926 102.588 101.421 53.6564 104.04 98.0821 54.3789 103.89 98.9112 
54.9403 103.694 99.8465 55.0933 103.516 101.1 55.111 103.229 102.589 
53.264 104.663 97.9511 53.9179 104.628 98.7971 54.5235 104.522 99.7281 
54.8901 104.357 100.886 55.0066 104.142 102.304 55.0108 103.791 103.658 
[...]
POINT_DATA 1002
SCALARS Color_Map_Phi float
LOOKUP_TABLE default
6.28319 3.14159 6.28319 3.14159 4.71239 4.71239 1.5708 1.5708 3.69517 
5.72961 2.58802 0.553574 6.28319 6.28319 6.28319 6.28319 3.14159 3.14159 
3.14159 3.14159 3.14159 6.1053 5.8988 5.67687 5.45995 5.26596 5.10322 
4.97131 4.86569 4.78095 0.177881 0.384387 0.606312 0.823235 1.01722 1.17997 
1.31187 1.4175 1.50223 6.18928 6.10703 6.03531 5.97283 5.91832 5.87061 
5.82869 5.79168 5.75886 0.0939024 0.176153 0.247873 0.310351 0.364864 0.412573 
0.454497 0.491504 0.524326 3.31947 3.52598 3.7479 3.96483 4.15881 4.32156 
4.45346 4.55909 4.64383 2.96371 2.75721 2.53528 2.31836 2.12437 1.96162 
1.82972 1.72409 1.63936 3.2355 3.31775 3.38947 3.45194 3.50646 3.55417 
3.59609 3.6331 3.66592 3.04769 2.96544 2.89372 2.83124 2.77673 2.72902 
2.6871 2.65009 2.61727 6.28319 6.28319 6.28319 6.28319 3.14159 3.14159 
3.14159 3.14159 3.14159 6.1053 5.8988 5.67687 5.45995 5.26596 5.10322 
4.97131 4.86569 4.78095 0.177881 0.384387 0.606312 0.823235 1.01722 1.17997 
1.31187 1.4175 1.50223 6.18928 6.10703 6.03531 5.97283 5.91832 5.87061 
5.82869 5.79168 5.75886 0.0939024 0.176153 0.247873 0.310351 0.364864 0.412573 
0.454497 0.491504 0.524326 3.31947 3.52598 3.7479 3.96483 4.15881 4.32156 
4.45346 4.55909 4.64383 2.96371 2.75721 2.53528 2.31836 2.12437 1.96162 
1.82972 1.72409 1.63936 3.2355 3.31775 3.38947 3.45194 3.50646 3.55417 
3.59609 3.6331 3.66592 3.04769 2.96544 2.89372 2.83124 2.77673 2.72902 
2.6871 2.65009 2.61727 4.71239 4.71239 4.71239 4.71239 4.71239 4.71239 
4.71239 4.71239 4.71239 4.60879 4.49914 4.3857 4.27128 4.15881 4.05096 
3.94976 3.85646 3.77161 4.81599 4.92564 5.03907 5.1535 5.26596 5.37381 
5.47502 5.56831 5.65317 4.60879 4.49914 4.3857 4.27128 4.15881 4.05096 
3.94976 3.85646 3.77161 4.81599 4.92564 5.03907 5.1535 5.26596 5.37381 
5.47502 5.56831 5.65317 1.5708 1.5708 1.5708 1.5708 1.5708 1.5708 
1.5708 1.5708 1.5708 1.6744 1.78405 1.89748 2.01191 2.12437 2.23222 
2.33343 2.42672 2.51157 1.4672 1.35755 1.24411 1.12969 1.01722 0.909371 
0.808166 0.714871 0.63002 1.6744 1.78405 1.89748 2.01191 2.12437 2.23222 
2.33343 2.42672 2.51157 1.4672 1.35755 1.24411 1.12969 1.01722 0.909371 
0.808166 0.714871 0.63002 3.60077 3.49669 3.38395 3.26458 3.14159 3.01861 
2.89924 2.78649 2.68241 5.82401 5.92808 6.04083 6.1602 6.28319 0.122983 
0.242354 0.355101 0.459179 6.05603 5.78856 5.97021 5.51259 5.60297 5.78856 
5.26596 5.26596 5.26596 5.26596 5.06749 5.0121 4.91556 4.71239 4.15881 
4.91556 4.83537 4.71239 4.50922 4.15881 3.63622 4.80045 4.71239 4.58941 
4.41268 4.15881 3.82181 3.45456 4.71239 4.62433 4.50922 4.35729 4.15881 
3.91219 3.63622 3.36875 6.01742 5.94343 5.82633 5.88092 5.76745 5.62798 
5.8278 5.71897 5.58911 5.43724 5.78235 5.67854 5.55757 5.41926 5.26596 
5.74316 5.64441 5.5315 5.40467 5.26596 5.11955 5.70914 5.61528 5.50962 
5.3926 5.26596 5.13292 4.99789 5.67937 5.59016 5.49102 5.38246 5.26596 
5.14407 5.02016 4.89798 5.56831 5.47502 5.47502 5.37381 5.37381 5.37381 
5.26596 5.26596 5.26596 5.26596 5.1535 5.1535 5.1535 5.1535 5.1535 
5.03907 5.03907 5.03907 5.03907 5.03907 5.03907 4.92564 4.92564 4.92564 
4.92564 4.92564 4.92564 4.92564 4.81599 4.81599 4.81599 4.81599 4.81599 
4.81599 4.81599 4.81599 4.60879 4.60879 4.49914 4.60879 4.49914 4.3857 
4.60879 4.49914 4.3857 4.27128 4.60879 4.49914 4.3857 4.27128 4.15881 
4.60879 4.49914 4.3857 4.27128 4.15881 4.05096 4.60879 4.49914 4.3857 
4.27128 4.15881 4.05096 3.94976 4.60879 4.49914 4.3857 4.27128 4.15881 
4.05096 3.94976 3.85646 4.5268 4.40462 4.42689 4.28071 4.29185 4.30523 
4.15881 4.15881 4.15881 4.15881 4.04232 4.03217 4.02011 4.00552 3.98753 
3.93376 3.91515 3.89328 3.86721 3.83566 3.7968 3.83461 3.8095 3.78037 
3.74624 3.70581 3.65733 3.59845 3.7454 3.71564 3.68161 3.64243 3.59698 
3.54386 3.48135 3.40735 3.56428 3.45246 3.52338 3.33203 3.40312 3.47739 
3.20576 3.27463 3.34802 3.42551 3.07742 3.14159 3.21128 3.28647 3.36688 
2.95116 3.00855 3.0719 3.14159 3.21784 3.3006 2.83072 2.88006 2.93517 
2.99672 3.06535 3.14159 3.22575 2.7189 2.7598 2.8058 2.85768 2.9163 
2.98259 3.05743 3.14159 3.56428 3.52338 3.45246 3.47739 3.40312 3.33203 
3.42551 3.34802 3.27463 3.20576 3.36688 3.28647 3.21128 3.14159 3.07742 
3.3006 3.21784 3.14159 3.0719 3.00855 2.95116 3.22575 3.14159 3.06535 
2.99672 2.93517 2.88006 2.83072 3.14159 3.05743 2.98259 2.9163 2.85768 
2.8058 2.7598 2.7189 4.5268 4.42689 4.40462 4.30523 4.29185 4.28071 
4.15881 4.15881 4.15881 4.15881 3.98753 4.00552 4.02011 4.03217 4.04232 
3.7968 3.83566 3.86721 3.89328 3.91515 3.93376 3.59845 3.65733 3.70581 
3.74624 3.78037 3.8095 3.83461 3.40735 3.48135 3.54386 3.59698 3.64243 
3.68161 3.71564 3.7454 4.71239 4.80045 4.62433 4.91556 4.71239 4.50922 
5.06749 4.83537 4.58941 4.35729 5.26596 5.0121 4.71239 4.41268 4.15881 
5.51259 5.26596 4.91556 4.50922 4.15881 3.91219 5.78856 5.60297 5.26596 
4.71239 4.15881 3.82181 3.63622 6.05603 5.97021 5.78856 5.26596 4.15881 
3.63622 3.45456 3.36875 0.227158 0.494626 0.312971 0.770593 0.680215 0.494626 
1.01722 1.01722 1.01722 1.01722 1.2157 1.27109 1.36763 1.5708 2.12437 
1.36763 1.44781 1.5708 1.77397 2.12437 2.64697 1.48273 1.5708 1.69378 
1.8705 2.12437 2.46138 2.82862 1.5708 1.65886 1.77397 1.9259 2.12437 
2.371 2.64697 2.91443 1.75639 1.87857 1.8563 2.00248 1.99133 1.97796 
2.12437 2.12437 2.12437 2.12437 2.24087 2.25101 2.26308 2.27767 2.29565 
2.34943 2.36803 2.38991 2.41597 2.44752 2.48639 2.44857 2.47368 2.50281 
2.53694 2.57738 2.62586 2.68474 2.53778 2.56754 2.60157 2.64076 2.68621 
2.73933 2.80184 2.87583 1.6744 1.6744 1.78405 1.6744 1.78405 1.89748 
1.6744 1.78405 1.89748 2.01191 1.6744 1.78405 1.89748 2.01191 2.12437 
1.6744 1.78405 1.89748 2.01191 2.12437 2.23222 1.6744 1.78405 1.89748 
2.01191 2.12437 2.23222 2.33343 1.6744 1.78405 1.89748 2.01191 2.12437 
2.23222 2.33343 2.42672 1.4672 1.35755 1.4672 1.24411 1.35755 1.4672 
1.12969 1.24411 1.35755 1.4672 1.01722 1.12969 1.24411 1.35755 1.4672 
0.909371 1.01722 1.12969 1.24411 1.35755 1.4672 0.808166 0.909371 1.01722 
1.12969 1.24411 1.35755 1.4672 0.714871 0.808166 0.909371 1.01722 1.12969 
1.24411 1.35755 1.4672 0.603812 0.57405 0.693022 0.540021 0.667908 0.792164 
0.500837 0.638778 0.773562 0.900726 0.455383 0.604649 0.751687 0.890581 1.01722 
0.402264 0.564217 0.725619 0.878514 1.01722 1.13912 0.339753 0.515737 0.694072 
0.863926 1.01722 1.15026 1.26302 0.265762 0.456853 0.655207 0.845941 1.01722 
1.16363 1.28529 1.38521 0.227158 0.312971 0.494626 0.494626 0.680215 0.770593 
1.01722 1.01722 1.01722 1.01722 2.12437 1.5708 1.36763 1.27109 1.2157 
2.64697 2.12437 1.77397 1.5708 1.44781 1.36763 2.82862 2.46138 2.12437 
1.8705 1.69378 1.5708 1.48273 2.91443 2.64697 2.371 2.12437 1.9259 
1.77397 1.65886 1.5708 1.75639 1.8563 1.87857 1.97796 1.99133 2.00248 
2.12437 2.12437 2.12437 2.12437 2.29565 2.27767 2.26308 2.25101 2.24087 
2.48639 2.44752 2.41597 2.38991 2.36803 2.34943 2.68474 2.62586 2.57738 
2.53694 2.50281 2.47368 2.44857 2.87583 2.80184 2.73933 2.68621 2.64076 
2.60157 2.56754 2.53778 5.86049 5.90139 5.97231 5.94739 6.02165 6.09275 
5.99927 6.07676 6.15015 6.21902 6.0579 6.13831 6.2135 0 0.0641696 
6.12418 6.20694 6.28319 0.069689 0.13304 0.190437 6.19903 0 0.0762451 
0.144876 0.206423 0.261531 0.310872 0 0.0841597 0.159004 0.225289 0.283913 
0.335793 0.381792 0.422692 5.86049 5.97231 5.90139 6.09275 6.02165 5.94739 
6.21902 6.15015 6.07676 5.99927 0.0641696 0 6.2135 6.13831 6.0579 
0.190437 0.13304 0.069689 6.28319 6.20694 6.12418 0.310872 0.261531 0.206423 
0.144876 0.0762451 6.28319 6.19903 0.422692 0.381792 0.335793 0.283913 0.225289 
0.159004 0.0841597 0 5.67937 5.70914 5.59016 5.74316 5.61528 5.49102 
5.78235 5.64441 5.50962 5.38246 5.8278 5.67854 5.5315 5.3926 5.26596 
5.88092 5.71897 5.55757 5.40467 5.26596 5.14407 5.94343 5.76745 5.58911 
5.41926 5.26596 5.13292 5.02016 6.01742 5.82633 5.62798 5.43724 5.26596 
5.11955 4.99789 4.89798 1.38521 1.28529 1.26302 1.16363 1.15026 1.13912 
1.01722 1.01722 1.01722 1.01722 0.845941 0.863926 0.878514 0.890581 0.900726 
0.655207 0.694072 0.725619 0.751687 0.773562 0.792164 0.456853 0.515737 0.564217 
0.604649 0.638778 0.667908 0.693022 0.265762 0.339753 0.402264 0.455383 0.500837 
0.540021 0.57405 0.603812 
