# vtk DataFile Version 4.1
vtk output
ASCII
DATASET POLYDATA
POINTS 1002 float
47.2588 94.1189 95.4716 49.7617 98.8614 105.844 43.8961 104.187 94.4624 
45.9661 106.442 105.504 52.0015 101.9 99.686 50.5312 106.863 98.0842 
40.291 96.1837 104.139 38.0474 101.836 103.492 57.171 105.133 108.45 
49.0766 101.324 89.8775 44.4932 101.386 109.851 41.6828 97.5759 94.3552 
47.1946 94.8743 96.0398 47.17 95.6589 96.7709 47.1093 96.5068 97.7151 
47.0973 97.3075 98.8409 47.2467 97.9502 100.115 47.514 98.4335 101.563 
47.874 98.7588 103.07 48.3791 98.9428 104.328 49.0417 98.9639 105.2 
47.7046 94.8177 95.5087 48.2237 95.5382 95.5932 48.7317 96.32 95.7543 
49.154 97.2392 96.0301 49.5416 98.2369 96.4272 49.9183 99.2021 96.9293 
50.3339 100.07 97.542 50.8615 100.794 98.261 51.4458 101.389 99.0138 
46.7563 93.9981 95.8002 46.222 94.0784 96.2657 45.6757 94.3409 96.9412 
45.0695 94.7321 97.808 44.3939 95.1351 98.8644 43.6744 95.4781 100.022 
42.855 95.8321 101.11 41.9455 96.1068 102.177 41.0629 96.174 103.245 
47.654 93.8626 94.9338 48.1039 93.8547 94.2913 48.5311 94.1879 93.608 
48.8535 94.8966 93.0169 48.992 95.9738 92.4848 48.9556 97.1876 91.9157 
48.9069 98.3236 91.3535 48.9499 99.4324 90.8128 49.0269 100.473 90.3017 
47.0305 93.1849 95.1544 46.5873 92.2992 94.8791 45.7701 91.8816 94.6415 
44.8044 92.2236 94.3625 44.0597 93.1737 94.0568 43.5331 94.3326 93.9072 
43.0677 95.4131 93.9615 42.6149 96.3149 94.0903 42.1467 97.0241 94.2202 
50.1018 99.2649 105.513 50.3899 99.709 105.077 50.6557 100.093 104.573 
50.9003 100.468 104.033 51.0891 100.913 103.425 51.2679 101.268 102.753 
51.5215 101.464 102.024 51.7684 101.635 101.247 51.9126 101.794 100.469 
48.9057 98.5758 105.768 47.9865 98.1993 105.661 47.0824 97.6912 105.506 
46.2371 97.1664 105.314 45.3507 96.7672 105.118 44.2242 96.6039 104.887 
42.9636 96.6249 104.608 41.8967 96.5522 104.392 41.0508 96.3284 104.277 
50.7278 99.0157 106.281 51.7326 99.3307 106.739 52.7542 99.8151 107.177 
53.8363 100.421 107.615 55.0221 101.04 108.014 56.1618 101.594 108.333 
56.9819 102.288 108.594 57.3679 103.27 108.72 57.3891 104.304 108.643 
49.9086 98.6168 106.454 49.83 98.5871 107.182 49.4767 98.826 107.86 
48.9209 99.2039 108.315 48.248 99.6096 108.692 47.5682 99.964 109.117 
46.8718 100.242 109.471 46.0439 100.553 109.698 45.188 100.955 109.823 
44.0151 104.408 95.506 44.0861 104.721 96.6175 44.1341 105.118 97.7784 
44.1906 105.504 99.0083 44.2666 105.874 100.268 44.4056 106.239 101.522 
44.6237 106.51 102.77 44.9553 106.61 103.906 45.4321 106.558 104.806 
44.3985 104.497 94.2884 44.943 104.863 94.1911 45.5197 105.267 94.2224 
46.1259 105.677 94.398 46.7654 106.089 94.7066 47.4624 106.415 95.2055 
48.2491 106.594 95.907 49.0837 106.718 96.6759 49.8618 106.823 97.4067 
43.4793 104.005 95.3379 42.9734 103.815 96.278 42.3516 103.671 97.227 
41.6541 103.539 98.2304 40.9144 103.33 99.2699 40.1595 103.061 100.209 
39.4551 102.783 101.077 38.8497 102.507 101.954 38.3727 102.208 102.778 
44.0856 104.144 93.3301 44.3805 104.051 92.2178 44.7172 103.961 91.0936 
44.9844 103.906 89.887 45.391 103.79 88.9461 46.1893 103.483 88.7293 
47.1315 102.976 89.0221 47.9148 102.405 89.3505 48.5524 101.859 89.6126 
43.4817 103.857 93.9864 43.0155 103.448 93.5674 42.5491 102.942 93.2629 
42.1214 102.324 93.0863 41.7476 101.592 93.0341 41.4716 100.735 93.0994 
41.3237 99.7598 93.2775 41.3172 98.829 93.5792 41.455 98.1119 93.9663 
46.4979 106.721 105.045 47.0814 106.984 104.53 47.6849 107.254 103.905 
48.1865 107.534 103.175 48.6077 107.695 102.275 49.113 107.711 101.184 
49.6658 107.659 100.193 50.0844 107.496 99.4407 50.3459 107.204 98.7596 
45.0707 106.207 105.568 44.0613 105.939 105.619 43.0193 105.642 105.582 
42.0692 105.202 105.419 41.223 104.604 105.171 40.4251 103.993 104.877 
39.6553 103.435 104.547 38.9898 102.886 104.193 38.4768 102.336 103.835 
46.8836 106.468 105.887 47.9407 106.5 106.345 49.0914 106.606 106.888 
50.2902 106.746 107.45 51.6161 106.787 107.912 53.087 106.683 108.198 
54.4769 106.418 108.358 55.6331 106.022 108.475 56.5422 105.598 108.528 
45.9369 106.194 106.213 45.8292 105.936 106.951 45.6795 105.605 107.657 
45.5412 105.164 108.306 45.4167 104.634 108.869 45.2677 104.048 109.329 
45.0656 103.416 109.684 44.8351 102.737 109.884 44.6347 102.04 109.924 
52.4098 102.253 99.4976 52.7778 102.686 99.2215 52.9041 103.289 99.0442 
52.7922 104.036 98.9762 52.668 104.836 98.7828 52.5007 105.572 98.4924 
52.1106 106.09 98.2986 51.5675 106.396 98.1864 51.0279 106.637 98.1101 
52.5059 102.348 100.798 53.103 102.787 101.887 53.9 103.096 102.802 
54.7774 103.339 103.621 55.532 103.641 104.564 56.2671 103.919 105.43 
56.9866 104.179 106.075 57.4231 104.549 106.858 57.4736 104.919 107.776 
51.7569 101.68 98.4495 51.5622 101.434 97.1039 51.4087 101.165 95.7803 
51.186 100.971 94.555 51.0169 100.905 93.2002 51.0394 100.902 91.696 
50.9515 100.948 90.5833 50.5139 101.058 90.1023 49.837 101.197 89.9528 
51.1112 107.065 99.1848 51.8347 107.18 100.361 52.6931 107.164 101.581 
53.6323 107.114 102.824 54.6085 107.116 103.99 55.5066 107.042 105.046 
56.209 106.747 106.099 56.7188 106.281 107.082 57.0458 105.733 107.859 
50.3033 106.506 96.9779 50.0645 106.136 95.7417 49.8543 105.701 94.359 
49.7492 105.212 92.9044 49.8101 104.827 91.3892 50.0343 104.485 89.9115 
50.2213 103.855 89.0503 50.0788 102.937 89.0779 49.6121 102.057 89.4957 
39.3703 96.3264 104.404 38.4701 96.666 104.509 37.6563 97.0346 104.548 
36.974 97.4758 104.526 36.5751 98.2553 104.348 36.5402 99.2619 104.102 
36.7635 100.105 103.945 37.1478 100.722 103.83 37.6066 101.284 103.68 
40.0642 96.3634 104.981 39.9466 96.7258 105.787 40.0119 97.2141 106.596 
40.3006 97.7347 107.323 40.7634 98.3135 107.908 41.3483 98.9363 108.439 
42.0537 99.5273 108.918 42.8563 100.136 109.304 43.69 100.779 109.615 
40.0419 96.1561 103.354 39.941 96.2279 102.324 40.062 96.2929 101.183 
40.3296 96.3385 100.046 40.6161 96.4387 98.9155 40.9121 96.5607 97.8343 
41.2104 96.7136 96.8273 41.4483 96.9683 95.9139 41.6061 97.2785 95.1097 
38.0905 101.693 104.409 38.0883 101.676 105.45 38.0314 101.875 106.539 
38.2414 101.968 107.585 38.7781 101.801 108.552 39.5074 101.682 109.229 
40.6658 101.646 109.478 42.1208 101.547 109.564 43.3984 101.451 109.703 
37.8188 101.611 102.709 37.804 101.267 101.794 37.9955 100.826 100.746 
38.2485 100.368 99.694 38.6995 99.8636 98.7395 39.419 99.3114 97.8184 
40.0838 98.7902 96.8227 40.6191 98.321 95.8341 41.1669 97.9169 95.0123 
56.6997 104.793 108.948 55.8065 104.454 109.264 54.6085 104.177 109.536 
53.2712 103.915 109.845 51.7774 103.58 110.185 50.1977 103.132 110.459 
48.6922 102.608 110.489 47.2095 102.116 110.297 45.7581 101.72 110.062 
48.27 100.938 90.0452 47.4002 100.454 90.2562 46.429 99.8978 90.5371 
45.4747 99.3689 90.8394 44.5507 98.833 91.1203 43.521 98.2473 91.3407 
42.6314 97.792 91.6955 42.1713 97.5946 92.4508 41.9499 97.5608 93.4431 
47.6913 95.5416 96.1667 48.213 96.2883 96.3779 47.6631 96.3619 97.0141 
48.668 97.1542 96.6934 48.1491 97.1762 97.3486 47.5898 97.2375 98.0424 
49.0879 98.1264 97.1257 48.6125 98.068 97.7902 48.1105 98.0345 98.4666 
47.6131 98.0118 99.2478 49.5341 99.0931 97.6469 49.0997 98.9833 98.3545 
48.6357 98.894 99.0587 48.1752 98.788 99.8505 47.8018 98.6399 100.688 
50.0304 99.9411 98.2594 49.6399 99.8214 99.0124 49.1765 99.7474 99.7781 
48.7512 99.616 100.618 48.4449 99.3468 101.444 48.1844 99.0372 102.244 
50.6421 100.636 98.9808 50.3 100.504 99.757 49.8373 100.449 100.546 
49.4289 100.328 101.375 49.1926 99.9768 102.192 49.015 99.559 102.922 
48.7365 99.2239 103.654 51.3095 101.234 99.7531 51.058 101.078 100.534 
50.6619 100.986 101.329 50.2968 100.85 102.094 50.0809 100.478 102.841 
49.9245 100.018 103.513 49.6985 99.6465 104.138 49.3842 99.3083 104.736 
48.1495 94.6685 94.9126 48.7181 94.6567 94.2182 48.701 95.4731 94.9575 
49.3285 94.8868 93.485 49.2862 95.5273 94.2508 49.1863 96.3724 95.0891 
49.7861 95.5551 92.7901 49.9149 95.7988 93.4602 49.6757 96.5704 94.38 
49.5788 97.3889 95.3483 49.9094 96.6523 92.152 50.4276 96.4477 92.645 
50.241 96.9169 93.5826 50.0065 97.6581 94.6776 49.9538 98.4106 95.7652 
49.7752 97.8706 91.5685 50.6064 97.4551 91.9341 50.7757 97.5101 92.7579 
50.5076 98.0576 93.9627 50.3764 98.7128 95.1419 50.3118 99.4194 96.3072 
49.6806 99.0815 91.0033 50.5139 98.6864 91.3047 50.9906 98.4806 92.0083 
50.9093 98.7069 93.2196 50.7877 99.1923 94.4975 50.7442 99.7633 95.6867 
50.7133 100.351 96.9589 49.7411 100.235 90.4433 50.4639 99.9684 90.6708 
50.9696 99.7521 91.2729 51.0337 99.7294 92.4715 50.9968 99.919 93.8627 
51.0887 100.258 95.0828 51.1308 100.697 96.3431 51.2103 101.1 97.7097 
50.3713 102 89.5842 50.6008 102.891 89.4735 50.8498 101.937 89.9507 
50.4337 103.722 90.083 50.7693 102.805 90.3995 50.9885 101.918 90.9097 
50.2132 104.33 91.3912 50.5588 103.593 91.5381 50.8545 102.794 91.8423 
50.9903 101.933 92.4573 50.1953 104.817 92.8608 50.5961 104.288 92.9267 
50.9111 103.598 93.104 51.0819 102.831 93.5145 51.1534 101.907 94.077 
50.3111 105.327 94.3097 50.785 104.901 94.3256 51.1687 104.331 94.4332 
51.3525 103.625 94.724 51.4273 102.794 95.1378 51.4831 101.896 95.4837 
50.5161 105.814 95.7312 50.9942 105.446 95.7634 51.4391 104.968 95.8336 
51.6891 104.309 96.0553 51.7786 103.535 96.3808 51.8546 102.708 96.6288 
51.8143 101.967 96.8395 50.7765 106.242 96.9933 51.2681 105.942 97.0702 
51.7452 105.552 97.1666 52.0623 104.951 97.3643 52.1982 104.18 97.6521 
52.3168 103.38 97.8361 52.3485 102.649 97.9669 52.1293 102.086 98.1987 
52.9668 102.736 100.593 53.339 103.225 100.302 53.5921 103.229 101.664 
53.4204 103.905 100.146 53.9334 103.819 101.379 54.3457 103.652 102.588 
53.3302 104.696 100.033 54.042 104.562 101.172 54.6509 104.354 102.311 
55.121 104.035 103.487 53.2423 105.503 99.7653 54.0458 105.35 100.934 
54.8111 105.136 102.017 55.3858 104.808 103.232 55.8341 104.397 104.471 
52.9613 106.19 99.497 53.8842 106.119 100.679 54.7711 105.936 101.759 
55.4811 105.654 102.925 56.0274 105.232 104.215 56.5368 104.739 105.294 
[...]
POINT_DATA 1002
SCALARS Color_Map_Phi float
LOOKUP_TABLE default
6.28319 3.14159 6.28319 3.14159 4.71239 4.71239 1.5708 1.5708 3.69517 
5.72961 2.58802 0.553574 6.28319 6.28319 6.28319 6.28319 3.14159 3.14159 
3.14159 3.14159 3.14159 6.1053 5.8988 5.67687 5.45995 5.26596 5.10322 
4.97131 4.86569 4.78095 0.177881 0.384387 0.606312 0.823235 1.01722 1.17997 
1.31187 1.4175 1.50223 6.18928 6.10703 6.03531 5.97283 5.91832 5.87061 
5.82869 5.79168 5.75886 0.0939024 0.176153 0.247873 0.310351 0.364864 0.412573 
0.454497 0.491504 0.524326 3.31947 3.52598 3.7479 3.96483 4.15881 4.32156 
4.45346 4.55909 4.64383 2.96371 2.75721 2.53528 2.31836 2.12437 1.96162 
1.82972 1.72409 1.63936 3.2355 3.31775 3.38947 3.45194 3.50646 3.55417 
3.59609 3.6331 3.66592 3.04769 2.96544 2.89372 2.83124 2.77673 2.72902 
2.6871 2.65009 2.61727 6.28319 6.28319 6.28319 6.28319 3.14159 3.14159 
3.14159 3.14159 3.14159 6.1053 5.8988 5.67687 5.45995 5.26596 5.10322 
4.97131 4.86569 4.78095 0.177881 0.384387 0.606312 0.823235 1.01722 1.17997 
1.31187 1.4175 1.50223 6.18928 6.10703 6.03531 5.97283 5.91832 5.87061 
5.82869 5.79168 5.75886 0.0939024 0.176153 0.247873 0.310351 0.364864 0.412573 
0.454497 0.491504 0.524326 3.31947 3.52598 3.7479 3.96483 4.15881 4.32156 
4.45346 4.55909 4.64383 2.96371 2.75721 2.53528 2.31836 2.12437 1.96162 
1.82972 1.72409 1.63936 3.2355 3.31775 3.38947 3.45194 3.50646 3.55417 
3.59609 3.6331 3.66592 3.04769 2.96544 2.89372 2.83124 2.77673 2.72902 
2.6871 2.65009 2.61727 4.71239 4.71239 4.71239 4.71239 4.71239 4.71239 
4.71239 4.71239 4.71239 4.60879 4.49914 4.3857 4.27128 4.15881 4.05096 
3.94976 3.85646 3.77161 4.81599 4.92564 5.03907 5.1535 5.26596 5.37381 
5.47502 5.56831 5.65317 4.60879 4.49914 4.3857 4.27128 4.15881 4.05096 
3.94976 3.85646 3.77161 4.81599 4.92564 5.03907 5.1535 5.26596 5.37381 
5.47502 5.56831 5.65317 1.5708 1.5708 1.5708 1.5708 1.5708 1.5708 
1.5708 1.5708 1.5708 1.6744 1.78405 1.89748 2.01191 2.12437 2.23222 
2.33343 2.42672 2.51157 1.4672 1.35755 1.24411 1.12969 1.01722 0.909371 
0.808166 0.714871 0.63002 1.6744 1.78405 1.89748 2.01191 2.12437 2.23222 
2.33343 2.42672 2.51157 1.4672 1.35755 1.24411 1.12969 1.01722 0.909371 
0.808166 0.714871 0.63002 3.60077 3.49669 3.38395 3.26458 3.14159 3.01861 
2.89924 2.78649 2.68241 5.82401 5.92808 6.04083 6.1602 6.28319 0.122983 
0.242354 0.355101 0.459179 6.05603 5.78856 5.97021 5.51259 5.60297 5.78856 
5.26596 5.26596 5.26596 5.26596 5.06749 5.0121 4.91556 4.71239 4.15881 
4.91556 4.83537 4.71239 4.50922 4.15881 3.63622 4.80045 4.71239 4.58941 
4.41268 4.15881 3.82181 3.45456 4.71239 4.62433 4.50922 4.35729 4.15881 
3.91219 3.63622 3.36875 6.01742 5.94343 5.82633 5.88092 5.76745 5.62798 
5.8278 5.71897 5.58911 5.43724 5.78235 5.67854 5.55757 5.41926 5.26596 
5.74316 5.64441 5.5315 5.40467 5.26596 5.11955 5.70914 5.61528 5.50962 
5.3926 5.26596 5.13292 4.99789 5.67937 5.59016 5.49102 5.38246 5.26596 
5.14407 5.02016 4.89798 5.56831 5.47502 5.47502 5.37381 5.37381 5.37381 
5.26596 5.26596 5.26596 5.26596 5.1535 5.1535 5.1535 5.1535 5.1535 
5.03907 5.03907 5.03907 5.03907 5.03907 5.03907 4.92564 4.92564 4.92564 
4.92564 4.92564 4.92564 4.92564 4.81599 4.81599 4.81599 4.81599 4.81599 
4.81599 4.81599 4.81599 4.60879 4.60879 4.49914 4.60879 4.49914 4.3857 
4.60879 4.49914 4.3857 4.27128 4.60879 4.49914 4.3857 4.27128 4.15881 
4.60879 4.49914 4.3857 4.27128 4.15881 4.05096 4.60879 4.49914 4.3857 
4.27128 4.15881 4.05096 3.94976 4.60879 4.49914 4.3857 4.27128 4.15881 
4.05096 3.94976 3.85646 4.5268 4.40462 4.42689 4.28071 4.29185 4.30523 
4.15881 4.15881 4.15881 4.15881 4.04232 4.03217 4.02011 4.00552 3.98753 
3.93376 3.91515 3.89328 3.86721 3.83566 3.7968 3.83461 3.8095 3.78037 
3.74624 3.70581 3.65733 3.59845 3.7454 3.71564 3.68161 3.64243 3.59698 
3.54386 3.48135 3.40735 3.56428 3.45246 3.52338 3.33203 3.40312 3.47739 
3.20576 3.27463 3.34802 3.42551 3.07742 3.14159 3.21128 3.28647 3.36688 
2.95116 3.00855 3.0719 3.14159 3.21784 3.3006 2.83072 2.88006 2.93517 
2.99672 3.06535 3.14159 3.22575 2.7189 2.7598 2.8058 2.85768 2.9163 
2.98259 3.05743 3.14159 3.56428 3.52338 3.45246 3.47739 3.40312 3.33203 
3.42551 3.34802 3.27463 3.20576 3.36688 3.28647 3.21128 3.14159 3.07742 
3.3006 3.21784 3.14159 3.0719 3.00855 2.95116 3.22575 3.14159 3.06535 
2.99672 2.93517 2.88006 2.83072 3.14159 3.05743 2.98259 2.9163 2.85768 
2.8058 2.7598 2.7189 4.5268 4.42689 4.40462 4.30523 4.29185 4.28071 
4.15881 4.15881 4.15881 4.15881 3.98753 4.00552 4.02011 4.03217 4.04232 
3.7968 3.83566 3.86721 3.89328 3.91515 3.93376 3.59845 3.65733 3.70581 
3.74624 3.78037 3.8095 3.83461 3.40735 3.48135 3.54386 3.59698 3.64243 
3.68161 3.71564 3.7454 4.71239 4.80045 4.62433 4.91556 4.71239 4.50922 
5.06749 4.83537 4.58941 4.35729 5.26596 5.0121 4.71239 4.41268 4.15881 
5.51259 5.26596 4.91556 4.50922 4.15881 3.91219 5.78856 5.60297 5.26596 
4.71239 4.15881 3.82181 3.63622 6.05603 5.97021 5.78856 5.26596 4.15881 
3.63622 3.45456 3.36875 0.227158 0.494626 0.312971 0.770593 0.680215 0.494626 
1.01722 1.01722 1.01722 1.01722 1.2157 1.27109 1.36763 1.5708 2.12437 
1.36763 1.44781 1.5708 1.77397 2.12437 2.64697 1.48273 1.5708 1.69378 
1.8705 2.12437 2.46138 2.82862 1.5708 1.65886 1.77397 1.9259 2.12437 
2.371 2.64697 2.91443 1.75639 1.87857 1.8563 2.00248 1.99133 1.97796 
2.12437 2.12437 2.12437 2.12437 2.24087 2.25101 2.26308 2.27767 2.29565 
2.34943 2.36803 2.38991 2.41597 2.44752 2.48639 2.44857 2.47368 2.50281 
2.53694 2.57738 2.62586 2.68474 2.53778 2.56754 2.60157 2.64076 2.68621 
2.73933 2.80184 2.87583 1.6744 1.6744 1.78405 1.6744 1.78405 1.89748 
1.6744 1.78405 1.89748 2.01191 1.6744 1.78405 1.89748 2.01191 2.12437 
1.6744 1.78405 1.89748 2.01191 2.12437 2.23222 1.6744 1.78405 1.89748 
2.01191 2.12437 2.23222 2.33343 1.6744 1.78405 1.89748 2.01191 2.12437 
2.23222 2.33343 2.42672 1.4672 1.35755 1.4672 1.24411 1.35755 1.4672 
1.12969 1.24411 1.35755 1.4672 1.01722 1.12969 1.24411 1.35755 1.4672 
0.909371 1.01722 1.12969 1.24411 1.35755 1.4672 0.808166 0.909371 1.01722 
1.12969 1.24411 1.35755 1.4672 0.714871 0.808166 0.909371 1.01722 1.12969 
1.24411 1.35755 1.4672 0.603812 0.57405 0.693022 0.540021 0.667908 0.792164 
0.500837 0.638778 0.773562 0.900726 0.455383 0.604649 0.751687 0.890581 1.01722 
0.402264 0.564217 0.725619 0.878514 1.01722 1.13912 0.339753 0.515737 0.694072 
0.863926 1.01722 1.15026 1.26302 0.265762 0.456853 0.655207 0.845941 1.01722 
1.16363 1.28529 1.38521 0.227158 0.312971 0.494626 0.494626 0.680215 0.770593 
1.01722 1.01722 1.01722 1.01722 2.12437 1.5708 1.36763 1.27109 1.2157 
2.64697 2.12437 1.77397 1.5708 1.44781 1.36763 2.82862 2.46138 2.12437 
1.8705 1.69378 1.5708 1.48273 2.91443 2.64697 2.371 2.12437 1.9259 
1.77397 1.65886 1.5708 1.75639 1.8563 1.87857 1.97796 1.99133 2.00248 
2.12437 2.12437 2.12437 2.12437 2.29565 2.27767 2.26308 2.25101 2.24087 
2.48639 2.44752 2.41597 2.38991 2.36803 2.34943 2.68474 2.62586 2.57738 
2.53694 2.50281 2.47368 2.44857 2.87583 2.80184 2.73933 2.68621 2.64076 
2.60157 2.56754 2.53778 5.86049 5.90139 5.97231 5.94739 6.02165 6.09275 
5.99927 6.07676 6.15015 6.21902 6.0579 6.13831 6.2135 0 0.0641696 
6.12418 6.20694 6.28319 0.069689 0.13304 0.190437 6.19903 0 0.0762451 
0.144876 0.206423 0.261531 0.310872 0 0.0841597 0.159004 0.225289 0.283913 
0.335793 0.381792 0.422692 5.86049 5.97231 5.90139 6.09275 6.02165 5.94739 
6.21902 6.15015 6.07676 5.99927 0.0641696 0 6.2135 6.13831 6.0579 
0.190437 0.13304 0.069689 6.28319 6.20694 6.12418 0.310872 0.261531 0.206423 
0.144876 0.0762451 6.28319 6.19903 0.422692 0.381792 0.335793 0.283913 0.225289 
0.159004 0.0841597 0 5.67937 5.70914 5.59016 5.74316 5.61528 5.49102 
5.78235 5.64441 5.50962 5.38246 5.8278 5.67854 5.5315 5.3926 5.26596 
5.88092 5.71897 5.55757 5.40467 5.26596 5.14407 5.94343 5.76745 5.58911 
5.41926 5.26596 5.13292 5.02016 6.01742 5.82633 5.62798 5.43724 5.26596 
5.11955 4.99789 4.89798 1.38521 1.28529 1.26302 1.16363 1.15026 1.13912 
1.01722 1.01722 1.01722 1.01722 0.845941 0.863926 0.878514 0.890581 0.900726 
0.655207 0.694072 0.725619 0.751687 0.773562 0.792164 0.456853 0.515737 0.564217 
0.604649 0.638778 0.667908 0.693022 0.265762 0.339753 0.402264 0.455383 0.500837 
0.540021 0.57405 0.603812 
