# vtk DataFile Version 4.1
vtk output
ASCII
DATASET POLYDATA
POINTS 1002 float
45.8213 97.1398 97.4469 49.2151 98.813 107.392 42.8506 103.76 94.4228 
44.922 105.674 105.028 54.0906 101.618 101.551 52.218 106.169 99.6356 
39.5661 95.512 104.126 36.4567 101.326 102.289 56.2347 103.844 107.735 
48.5211 101.433 90.4223 43.3672 100.975 109.672 40.8732 97.7562 94.0274 
45.7363 97.7723 98.5687 45.7012 98.3342 99.8446 45.8029 98.7589 101.159 
46.1615 98.9398 102.44 46.6532 98.9542 103.597 47.1466 98.9668 104.635 
47.6383 98.9792 105.548 48.171 98.9646 106.306 48.6972 98.9035 106.889 
45.9689 97.9582 97.8348 46.2021 98.8451 98.3659 46.5585 99.7996 99.0445 
47.1247 100.688 99.7883 47.9178 101.409 100.515 49.0174 101.877 101.105 
50.3689 102.114 101.525 51.7494 102.083 101.691 53.0079 101.833 101.633 
45.6377 96.7563 97.8163 45.3786 96.4078 98.3515 44.968 96.1514 99.0323 
44.4323 95.9739 99.8186 43.6543 96.0098 100.695 42.7735 96.1068 101.6 
41.8773 96.1074 102.435 41.0247 95.9361 103.081 40.238 95.6705 103.608 
45.9671 96.9473 96.6358 46.136 96.8495 95.8759 46.3377 96.9498 95.1942 
46.5114 97.3844 94.5267 46.6808 98.1452 93.8056 46.9993 98.9359 93.0755 
47.4646 99.6132 92.3772 47.9421 100.192 91.6476 48.3294 100.761 90.9306 
45.8352 96.0622 96.6493 45.8706 94.7618 95.9389 45.7073 93.745 95.2945 
45.2038 93.7162 94.7462 44.5621 94.6559 94.4072 43.9799 95.6012 94.2152 
43.2774 96.3894 94.0901 42.4874 97.0433 94.0251 41.6162 97.4524 94.0116 
49.6581 99.4196 107.044 50.3403 99.8648 106.626 51.1889 100.212 106.134 
52.0699 100.537 105.586 52.8415 100.775 104.984 53.4041 100.947 104.327 
53.7809 101.129 103.625 53.9897 101.26 102.878 54.0792 101.417 102.181 
48.6568 98.0367 107.341 48.1037 97.2441 107.146 47.3696 96.5474 106.912 
46.3185 96.0485 106.664 45.0822 95.7306 106.259 43.7502 95.7293 105.749 
42.505 95.752 105.341 41.3838 95.6353 105.017 40.3981 95.5056 104.607 
50.0334 99.0682 107.631 51.037 99.2323 107.855 52.235 99.2923 108.132 
53.4088 99.4576 108.454 54.254 100.018 108.575 54.8769 100.776 108.455 
55.428 101.544 108.28 55.8803 102.344 108.129 56.1601 103.148 107.961 
49.397 98.2708 107.89 49.5053 97.8714 108.498 49.2979 97.8295 109.116 
48.5723 98.1488 109.568 47.5958 98.496 109.875 46.6038 98.9296 110.031 
45.7147 99.4903 110.002 44.896 100.066 109.869 44.0968 100.544 109.778 
42.8592 103.984 95.3918 42.8946 104.234 96.4761 42.9594 104.492 97.6428 
43.0766 104.791 98.838 43.1974 105.154 99.9737 43.346 105.468 101.079 
43.6018 105.645 102.208 44.0065 105.711 103.307 44.4559 105.737 104.264 
43.4166 104.103 94.4159 44.0705 104.43 94.5677 44.7718 104.775 94.8741 
45.5378 105.173 95.3467 46.4638 105.538 95.9818 47.5726 105.789 96.8032 
48.7882 105.983 97.6405 49.9826 106.12 98.428 51.1381 106.173 99.0959 
42.295 103.552 95.0815 41.6842 103.324 95.8496 40.9547 103.07 96.6627 
40.1361 102.813 97.4516 39.3365 102.578 98.2602 38.5898 102.322 99.1361 
37.8623 102.063 99.9436 37.2497 101.846 100.666 36.7909 101.606 101.46 
43.225 103.75 93.4627 43.6825 103.726 92.4114 44.1471 103.711 91.2675 
44.571 103.762 90.1404 45.2438 103.823 89.2337 46.2291 103.673 88.8347 
47.2338 103.24 88.9311 47.9061 102.624 89.3298 48.3192 101.973 89.822 
42.5004 103.402 93.9108 42.1084 102.991 93.4393 41.6783 102.528 93.0656 
41.248 101.955 92.8297 40.8349 101.208 92.6936 40.4946 100.357 92.6701 
40.3384 99.4817 92.855 40.397 98.7009 93.2202 40.5917 98.1159 93.6282 
45.7542 105.781 104.585 46.583 105.945 104.138 47.4098 106.208 103.688 
48.205 106.474 103.158 49.0023 106.648 102.537 49.8575 106.676 101.817 
50.7015 106.635 101.094 51.415 106.563 100.498 51.9006 106.414 100.038 
43.794 105.575 104.995 42.635 105.384 104.901 41.5548 105.084 104.73 
40.6309 104.63 104.472 39.7968 104.002 104.13 39.0164 103.359 103.758 
38.2485 102.816 103.389 37.5591 102.301 103.05 36.9639 101.793 102.658 
45.9421 105.589 105.398 47.0648 105.468 105.75 48.3471 105.408 106.169 
49.7666 105.398 106.625 51.1342 105.321 106.968 52.4627 105.159 107.23 
53.7256 104.959 107.465 54.8108 104.718 107.643 55.6332 104.345 107.728 
44.6864 105.527 105.728 44.4171 105.326 106.455 44.164 105.017 107.134 
43.9321 104.618 107.755 43.7011 104.15 108.348 43.4985 103.604 108.86 
43.3743 102.971 109.245 43.3302 102.309 109.519 43.3299 101.633 109.668 
54.7092 101.721 101.155 55.3302 101.952 100.73 55.7699 102.413 100.292 
55.8361 103.102 99.9232 55.5871 103.926 99.7127 55.1128 104.709 99.6512 
54.5098 105.275 99.6544 53.8034 105.66 99.6709 53.0161 105.952 99.6722 
55.1048 101.352 101.931 56.1244 101.132 102.403 57.1742 100.958 102.967 
58.1001 100.964 103.609 58.559 101.342 104.434 58.4634 101.944 105.42 
58.0953 102.488 106.296 57.6187 102.954 106.931 56.998 103.435 107.398 
53.3619 101.993 101.012 52.5094 102.357 100.43 51.5112 102.589 99.5989 
50.3792 102.672 98.3963 49.4663 102.539 96.8737 49.0446 102.191 95.3659 
48.9144 101.782 93.9134 48.8336 101.481 92.5382 48.713 101.38 91.3367 
53.1291 106.32 100.368 54.0987 106.448 101.157 55.0425 106.483 102.079 
55.9444 106.423 103.083 56.5751 106.121 104.106 56.9815 105.686 105.1 
57.0514 105.227 105.98 56.9289 104.771 106.728 56.6332 104.298 107.289 
51.7947 105.871 98.8999 51.2989 105.581 98.0147 50.774 105.322 96.9624 
50.2394 104.989 95.7904 49.6766 104.49 94.5962 49.1626 103.955 93.4372 
48.8593 103.429 92.2943 48.8233 102.785 91.2641 48.7248 102.08 90.6709 
38.7577 95.6396 104.172 37.9513 95.9261 104.227 37.1836 96.3844 104.229 
36.5499 96.9248 104.067 36.1404 97.6418 103.731 35.8784 98.5077 103.354 
35.697 99.4127 103.064 35.7426 100.212 102.822 36.0474 100.822 102.561 
39.509 95.5517 105.005 39.5728 95.8384 105.919 39.6826 96.2879 106.717 
39.8306 96.8508 107.386 40.1794 97.5391 107.975 40.7818 98.2257 108.52 
41.4614 98.8637 108.936 42.1055 99.543 109.243 42.7419 100.281 109.503 
39.2733 95.7639 103.296 39.1194 96.0856 102.344 39.086 96.3694 101.198 
39.1555 96.5217 99.889 39.3819 96.6068 98.5723 39.6607 96.8171 97.4318 
39.928 96.9959 96.3769 40.2095 97.256 95.4638 40.5403 97.4611 94.6681 
36.5791 101.318 103.366 36.7643 101.345 104.501 37.0024 101.379 105.651 
37.3927 101.331 106.752 38.0702 101.22 107.65 38.8947 101.144 108.368 
39.8699 101.061 108.946 41.0145 100.976 109.335 42.2308 100.949 109.531 
36.2288 101.031 101.363 36.1583 100.663 100.349 36.2583 100.2 99.2797 
36.6026 99.6799 98.2716 37.1462 99.1638 97.3402 37.6888 98.6154 96.3409 
38.1998 98.1143 95.3709 38.9184 97.8486 94.7252 39.8888 97.7886 94.3692 
55.3639 103.74 108.204 54.3417 103.583 108.726 53.1412 103.342 109.249 
51.7833 103.059 109.712 50.3107 102.752 110.031 48.7887 102.442 110.186 
47.2466 102.096 110.18 45.7748 101.74 110.07 44.4747 101.375 109.901 
48.0492 101.083 90.0754 47.1827 100.695 90.1058 46.1198 100.234 90.394 
45.1753 99.7251 90.7522 44.3366 99.1141 91.038 43.3629 98.4883 91.2533 
42.5316 98.0295 91.6744 41.984 97.8559 92.4256 41.4842 97.8063 93.2803 
45.9554 98.5697 99.0586 46.2839 99.4456 99.6731 46.0374 99.1184 100.408 
46.7988 100.365 100.393 46.5606 99.9223 101.041 46.3143 99.4703 101.75 
47.6007 101.112 101.115 47.3045 100.699 101.73 47.0339 100.192 102.388 
46.8232 99.6143 103.002 48.6731 101.655 101.748 48.3244 101.283 102.328 
47.9962 100.797 102.939 47.6537 100.271 103.558 47.3732 99.6485 104.09 
50.047 101.911 102.171 49.6303 101.659 102.802 49.2464 101.227 103.382 
48.7549 100.772 103.968 48.318 100.257 104.502 47.9477 99.638 105.037 
51.5416 101.904 102.357 51.2153 101.726 103.047 50.8083 101.446 103.677 
50.2904 101.06 104.258 49.6345 100.652 104.826 49.0358 100.164 105.357 
48.5556 99.6033 105.874 52.9199 101.678 102.306 52.7376 101.552 103.05 
52.4298 101.398 103.775 51.9568 101.145 104.407 51.2839 100.849 105.009 
50.4985 100.478 105.569 49.7542 100.039 106.079 49.1272 99.5451 106.539 
46.1093 97.9397 97.0141 46.245 98.0675 96.2186 46.3623 98.9993 97.5653 
46.445 98.3106 95.5263 46.5441 99.2348 96.7864 46.7508 100.05 98.3026 
46.6565 98.7867 94.8229 46.7703 99.568 96.04 46.9561 100.36 97.5153 
47.309 100.998 99.1021 46.9362 99.4121 94.1038 47.0744 100 95.2897 
47.209 100.71 96.716 47.5193 101.313 98.3173 48.1719 101.689 99.8379 
47.3608 100 93.4149 47.4494 100.45 94.5862 47.5746 101.037 95.9427 
47.7875 101.628 97.534 48.4774 101.971 99.1255 49.4189 102.12 100.482 
47.8839 100.459 92.7123 47.8784 100.831 93.9197 47.9771 101.314 95.231 
48.1921 101.842 96.7633 48.7654 102.229 98.4143 49.7716 102.38 99.8717 
50.8225 102.285 100.891 48.3919 100.858 91.9662 48.3809 101.134 93.2145 
48.4219 101.555 94.5648 48.5787 102.039 96.012 49.0988 102.408 97.6263 
50.1203 102.534 99.1569 51.1883 102.496 100.312 52.1553 102.205 101.038 
49.001 102.02 91.7376 49.2028 102.74 92.5296 49.2477 102.122 93.0995 
49.5351 103.381 93.5802 49.7166 102.774 93.9647 49.5079 102.366 94.6252 
50.0967 103.973 94.6784 50.3602 103.355 94.9712 50.2955 102.878 95.5241 
49.9052 102.654 96.1933 50.7581 104.551 95.8181 51.1758 103.938 95.9999 
51.3414 103.323 96.4139 51.1472 102.936 97.0223 50.7588 102.773 97.6924 
51.3872 104.978 96.9659 51.9787 104.488 97.021 52.4243 103.843 97.2318 
52.5327 103.227 97.6626 52.3291 102.838 98.2538 51.9561 102.67 98.9508 
51.9888 105.281 98.0115 52.6668 104.913 98.0061 53.2793 104.39 98.0554 
53.702 103.684 98.238 53.812 102.995 98.6185 53.5755 102.574 99.1938 
53.0893 102.422 99.8597 52.5498 105.601 98.9113 53.2868 105.278 98.8935 
53.9546 104.861 98.8711 54.5211 104.211 98.9041 54.8858 103.398 99.0776 
54.9321 102.695 99.4515 54.5935 102.266 99.9758 53.9912 102.07 100.524 
55.7685 101.556 101.607 56.3269 102.022 101.277 56.7723 101.531 102.209 
56.5639 102.744 100.909 57.1452 102.265 101.95 57.6961 101.629 102.843 
56.4638 103.601 100.614 57.1906 103.212 101.624 57.8601 102.658 102.613 
58.4327 101.953 103.53 56.1033 104.477 100.467 56.9737 104.18 101.383 
57.7287 103.802 102.367 58.4195 103.204 103.384 58.7379 102.504 104.445 
55.5487 105.231 100.414 56.5191 105.04 101.264 57.3511 104.792 102.217 
58.0685 104.382 103.278 58.5418 103.736 104.406 58.5324 103.045 105.486 
[...]
POINT_DATA 1002
SCALARS Color_Map_Phi float
LOOKUP_TABLE default
6.28319 3.14159 6.28319 3.14159 4.71239 4.71239 1.5708 1.5708 3.69517 
5.72961 2.58802 0.553574 6.28319 6.28319 6.28319 6.28319 3.14159 3.14159 
3.14159 3.14159 3.14159 6.1053 5.8988 5.67687 5.45995 5.26596 5.10322 
4.97131 4.86569 4.78095 0.177881 0.384387 0.606312 0.823235 1.01722 1.17997 
1.31187 1.4175 1.50223 6.18928 6.10703 6.03531 5.97283 5.91832 5.87061 
5.82869 5.79168 5.75886 0.0939024 0.176153 0.247873 0.310351 0.364864 0.412573 
0.454497 0.491504 0.524326 3.31947 3.52598 3.7479 3.96483 4.15881 4.32156 
4.45346 4.55909 4.64383 2.96371 2.75721 2.53528 2.31836 2.12437 1.96162 
1.82972 1.72409 1.63936 3.2355 3.31775 3.38947 3.45194 3.50646 3.55417 
3.59609 3.6331 3.66592 3.04769 2.96544 2.89372 2.83124 2.77673 2.72902 
2.6871 2.65009 2.61727 6.28319 6.28319 6.28319 6.28319 3.14159 3.14159 
3.14159 3.14159 3.14159 6.1053 5.8988 5.67687 5.45995 5.26596 5.10322 
4.97131 4.86569 4.78095 0.177881 0.384387 0.606312 0.823235 1.01722 1.17997 
1.31187 1.4175 1.50223 6.18928 6.10703 6.03531 5.97283 5.91832 5.87061 
5.82869 5.79168 5.75886 0.0939024 0.176153 0.247873 0.310351 0.364864 0.412573 
0.454497 0.491504 0.524326 3.31947 3.52598 3.7479 3.96483 4.15881 4.32156 
4.45346 4.55909 4.64383 2.96371 2.75721 2.53528 2.31836 2.12437 1.96162 
1.82972 1.72409 1.63936 3.2355 3.31775 3.38947 3.45194 3.50646 3.55417 
3.59609 3.6331 3.66592 3.04769 2.96544 2.89372 2.83124 2.77673 2.72902 
2.6871 2.65009 2.61727 4.71239 4.71239 4.71239 4.71239 4.71239 4.71239 
4.71239 4.71239 4.71239 4.60879 4.49914 4.3857 4.27128 4.15881 4.05096 
3.94976 3.85646 3.77161 4.81599 4.92564 5.03907 5.1535 5.26596 5.37381 
5.47502 5.56831 5.65317 4.60879 4.49914 4.3857 4.27128 4.15881 4.05096 
3.94976 3.85646 3.77161 4.81599 4.92564 5.03907 5.1535 5.26596 5.37381 
5.47502 5.56831 5.65317 1.5708 1.5708 1.5708 1.5708 1.5708 1.5708 
1.5708 1.5708 1.5708 1.6744 1.78405 1.89748 2.01191 2.12437 2.23222 
2.33343 2.42672 2.51157 1.4672 1.35755 1.24411 1.12969 1.01722 0.909371 
0.808166 0.714871 0.63002 1.6744 1.78405 1.89748 2.01191 2.12437 2.23222 
2.33343 2.42672 2.51157 1.4672 1.35755 1.24411 1.12969 1.01722 0.909371 
0.808166 0.714871 0.63002 3.60077 3.49669 3.38395 3.26458 3.14159 3.01861 
2.89924 2.78649 2.68241 5.82401 5.92808 6.04083 6.1602 6.28319 0.122983 
0.242354 0.355101 0.459179 6.05603 5.78856 5.97021 5.51259 5.60297 5.78856 
5.26596 5.26596 5.26596 5.26596 5.06749 5.0121 4.91556 4.71239 4.15881 
4.91556 4.83537 4.71239 4.50922 4.15881 3.63622 4.80045 4.71239 4.58941 
4.41268 4.15881 3.82181 3.45456 4.71239 4.62433 4.50922 4.35729 4.15881 
3.91219 3.63622 3.36875 6.01742 5.94343 5.82633 5.88092 5.76745 5.62798 
5.8278 5.71897 5.58911 5.43724 5.78235 5.67854 5.55757 5.41926 5.26596 
5.74316 5.64441 5.5315 5.40467 5.26596 5.11955 5.70914 5.61528 5.50962 
5.3926 5.26596 5.13292 4.99789 5.67937 5.59016 5.49102 5.38246 5.26596 
5.14407 5.02016 4.89798 5.56831 5.47502 5.47502 5.37381 5.37381 5.37381 
5.26596 5.26596 5.26596 5.26596 5.1535 5.1535 5.1535 5.1535 5.1535 
5.03907 5.03907 5.03907 5.03907 5.03907 5.03907 4.92564 4.92564 4.92564 
4.92564 4.92564 4.92564 4.92564 4.81599 4.81599 4.81599 4.81599 4.81599 
4.81599 4.81599 4.81599 4.60879 4.60879 4.49914 4.60879 4.49914 4.3857 
4.60879 4.49914 4.3857 4.27128 4.60879 4.49914 4.3857 4.27128 4.15881 
4.60879 4.49914 4.3857 4.27128 4.15881 4.05096 4.60879 4.49914 4.3857 
4.27128 4.15881 4.05096 3.94976 4.60879 4.49914 4.3857 4.27128 4.15881 
4.05096 3.94976 3.85646 4.5268 4.40462 4.42689 4.28071 4.29185 4.30523 
4.15881 4.15881 4.15881 4.15881 4.04232 4.03217 4.02011 4.00552 3.98753 
3.93376 3.91515 3.89328 3.86721 3.83566 3.7968 3.83461 3.8095 3.78037 
3.74624 3.70581 3.65733 3.59845 3.7454 3.71564 3.68161 3.64243 3.59698 
3.54386 3.48135 3.40735 3.56428 3.45246 3.52338 3.33203 3.40312 3.47739 
3.20576 3.27463 3.34802 3.42551 3.07742 3.14159 3.21128 3.28647 3.36688 
2.95116 3.00855 3.0719 3.14159 3.21784 3.3006 2.83072 2.88006 2.93517 
2.99672 3.06535 3.14159 3.22575 2.7189 2.7598 2.8058 2.85768 2.9163 
2.98259 3.05743 3.14159 3.56428 3.52338 3.45246 3.47739 3.40312 3.33203 
3.42551 3.34802 3.27463 3.20576 3.36688 3.28647 3.21128 3.14159 3.07742 
3.3006 3.21784 3.14159 3.0719 3.00855 2.95116 3.22575 3.14159 3.06535 
2.99672 2.93517 2.88006 2.83072 3.14159 3.05743 2.98259 2.9163 2.85768 
2.8058 2.7598 2.7189 4.5268 4.42689 4.40462 4.30523 4.29185 4.28071 
4.15881 4.15881 4.15881 4.15881 3.98753 4.00552 4.02011 4.03217 4.04232 
3.7968 3.83566 3.86721 3.89328 3.91515 3.93376 3.59845 3.65733 3.70581 
3.74624 3.78037 3.8095 3.83461 3.40735 3.48135 3.54386 3.59698 3.64243 
3.68161 3.71564 3.7454 4.71239 4.80045 4.62433 4.91556 4.71239 4.50922 
5.06749 4.83537 4.58941 4.35729 5.26596 5.0121 4.71239 4.41268 4.15881 
5.51259 5.26596 4.91556 4.50922 4.15881 3.91219 5.78856 5.60297 5.26596 
4.71239 4.15881 3.82181 3.63622 6.05603 5.97021 5.78856 5.26596 4.15881 
3.63622 3.45456 3.36875 0.227158 0.494626 0.312971 0.770593 0.680215 0.494626 
1.01722 1.01722 1.01722 1.01722 1.2157 1.27109 1.36763 1.5708 2.12437 
1.36763 1.44781 1.5708 1.77397 2.12437 2.64697 1.48273 1.5708 1.69378 
1.8705 2.12437 2.46138 2.82862 1.5708 1.65886 1.77397 1.9259 2.12437 
2.371 2.64697 2.91443 1.75639 1.87857 1.8563 2.00248 1.99133 1.97796 
2.12437 2.12437 2.12437 2.12437 2.24087 2.25101 2.26308 2.27767 2.29565 
2.34943 2.36803 2.38991 2.41597 2.44752 2.48639 2.44857 2.47368 2.50281 
2.53694 2.57738 2.62586 2.68474 2.53778 2.56754 2.60157 2.64076 2.68621 
2.73933 2.80184 2.87583 1.6744 1.6744 1.78405 1.6744 1.78405 1.89748 
1.6744 1.78405 1.89748 2.01191 1.6744 1.78405 1.89748 2.01191 2.12437 
1.6744 1.78405 1.89748 2.01191 2.12437 2.23222 1.6744 1.78405 1.89748 
2.01191 2.12437 2.23222 2.33343 1.6744 1.78405 1.89748 2.01191 2.12437 
2.23222 2.33343 2.42672 1.4672 1.35755 1.4672 1.24411 1.35755 1.4672 
1.12969 1.24411 1.35755 1.4672 1.01722 1.12969 1.24411 1.35755 1.4672 
0.909371 1.01722 1.12969 1.24411 1.35755 1.4672 0.808166 0.909371 1.01722 
1.12969 1.24411 1.35755 1.4672 0.714871 0.808166 0.909371 1.01722 1.12969 
1.24411 1.35755 1.4672 0.603812 0.57405 0.693022 0.540021 0.667908 0.792164 
0.500837 0.638778 0.773562 0.900726 0.455383 0.604649 0.751687 0.890581 1.01722 
0.402264 0.564217 0.725619 0.878514 1.01722 1.13912 0.339753 0.515737 0.694072 
0.863926 1.01722 1.15026 1.26302 0.265762 0.456853 0.655207 0.845941 1.01722 
1.16363 1.28529 1.38521 0.227158 0.312971 0.494626 0.494626 0.680215 0.770593 
1.01722 1.01722 1.01722 1.01722 2.12437 1.5708 1.36763 1.27109 1.2157 
2.64697 2.12437 1.77397 1.5708 1.44781 1.36763 2.82862 2.46138 2.12437 
1.8705 1.69378 1.5708 1.48273 2.91443 2.64697 2.371 2.12437 1.9259 
1.77397 1.65886 1.5708 1.75639 1.8563 1.87857 1.97796 1.99133 2.00248 
2.12437 2.12437 2.12437 2.12437 2.29565 2.27767 2.26308 2.25101 2.24087 
2.48639 2.44752 2.41597 2.38991 2.36803 2.34943 2.68474 2.62586 2.57738 
2.53694 2.50281 2.47368 2.44857 2.87583 2.80184 2.73933 2.68621 2.64076 
2.60157 2.56754 2.53778 5.86049 5.90139 5.97231 5.94739 6.02165 6.09275 
5.99927 6.07676 6.15015 6.21902 6.0579 6.13831 6.2135 0 0.0641696 
6.12418 6.20694 6.28319 0.069689 0.13304 0.190437 6.19903 0 0.0762451 
0.144876 0.206423 0.261531 0.310872 0 0.0841597 0.159004 0.225289 0.283913 
0.335793 0.381792 0.422692 5.86049 5.97231 5.90139 6.09275 6.02165 5.94739 
6.21902 6.15015 6.07676 5.99927 0.0641696 0 6.2135 6.13831 6.0579 
0.190437 0.13304 0.069689 6.28319 6.20694 6.12418 0.310872 0.261531 0.206423 
0.144876 0.0762451 6.28319 6.19903 0.422692 0.381792 0.335793 0.283913 0.225289 
0.159004 0.0841597 0 5.67937 5.70914 5.59016 5.74316 5.61528 5.49102 
5.78235 5.64441 5.50962 5.38246 5.8278 5.67854 5.5315 5.3926 5.26596 
5.88092 5.71897 5.55757 5.40467 5.26596 5.14407 5.94343 5.76745 5.58911 
5.41926 5.26596 5.13292 5.02016 6.01742 5.82633 5.62798 5.43724 5.26596 
5.11955 4.99789 4.89798 1.38521 1.28529 1.26302 1.16363 1.15026 1.13912 
1.01722 1.01722 1.01722 1.01722 0.845941 0.863926 0.878514 0.890581 0.900726 
0.655207 0.694072 0.725619 0.751687 0.773562 0.792164 0.456853 0.515737 0.564217 
0.604649 0.638778 0.667908 0.693022 0.265762 0.339753 0.402264 0.455383 0.500837 
0.540021 0.57405 0.603812 
