# vtk DataFile Version 4.1
vtk output
ASCII
DATASET POLYDATA
POINTS 1002 float
46.9779 97.7381 96.0319 49.7272 99.7288 104.074 44.1203 102.678 93.1845 
45.3876 104.195 102.673 52.1129 102.696 98.9656 49.356 105.748 96.1493 
42.7969 95.8349 102.684 39.1848 99.8169 101.211 53.7815 104.72 105.176 
48.9649 101.378 89.9802 44.2989 100.269 107.855 43.7391 96.4193 94.2398 
46.9071 98.29 96.7603 46.8624 98.8733 97.5893 46.8426 99.4191 98.5057 
46.8702 99.8768 99.5523 47.0832 100.134 100.658 47.5885 100.099 101.632 
48.1558 100.041 102.439 48.6673 100.029 103.132 49.1805 99.9241 103.678 
47.191 98.4165 96.1332 47.477 99.119 96.3054 47.8694 99.7377 96.5536 
48.3512 100.333 96.8554 48.8581 100.945 97.2167 49.3949 101.481 97.6533 
50.0071 101.909 98.0869 50.679 102.252 98.4741 51.4476 102.475 98.7624 
46.7484 97.437 96.3792 46.5589 97.1576 96.8335 46.3288 96.8871 97.3952 
45.9568 96.7206 98.0003 45.4586 96.7149 98.6425 44.95 96.6879 99.5173 
44.4109 96.5899 100.522 43.8438 96.4135 101.39 43.2882 96.1086 102.098 
47.1712 97.6553 95.421 47.3842 97.6691 94.8346 47.6157 97.7734 94.2113 
47.9098 97.9927 93.48 48.3025 98.2826 92.7129 48.7103 98.6262 91.9205 
48.9409 99.1893 91.1972 49.0002 99.9444 90.6867 48.9873 100.708 90.316 
46.8646 96.9556 95.5397 46.7107 96.0239 95.0215 46.6661 94.8385 94.5885 
46.722 93.6015 94.366 46.3921 92.977 94.1773 45.6081 93.3584 93.8911 
44.9892 94.2835 93.7925 44.5926 95.1604 93.9233 44.1719 95.8635 94.0856 
50.2048 100.104 103.798 50.778 100.443 103.446 51.3406 100.733 103.039 
51.758 101.024 102.548 51.977 101.427 102.069 52.0952 101.879 101.612 
52.1927 102.176 101.011 52.24 102.348 100.289 52.2173 102.514 99.6013 
48.9646 99.4175 104.071 48.2304 98.9956 104.025 47.5282 98.4921 103.952 
46.7886 97.996 103.86 46.0174 97.4986 103.787 45.2935 96.9883 103.695 
44.6185 96.5383 103.527 43.9627 96.2072 103.28 43.3663 95.9787 103.006 
50.5622 99.799 104.297 51.4611 99.9016 104.568 52.3334 100.111 104.914 
53.0276 100.514 105.269 53.5662 101.095 105.492 53.9837 101.797 105.59 
54.1962 102.632 105.561 54.1794 103.49 105.454 54.0555 104.213 105.351 
49.7085 99.4256 104.502 49.4912 99.2678 105.064 49.1119 99.2208 105.751 
48.6458 99.211 106.445 47.9853 99.294 106.966 47.231 99.4509 107.371 
46.501 99.5835 107.778 45.712 99.7597 108.043 44.9306 100.013 108.027 
44.2204 102.862 93.9872 44.2695 103.049 94.91 44.2937 103.274 95.8887 
44.3854 103.491 96.9725 44.4707 103.717 98.0958 44.5455 103.94 99.1696 
44.7037 104.071 100.187 44.9503 104.106 101.13 45.1778 104.146 101.949 
44.5757 102.997 93.0228 45.0681 103.329 92.9113 45.5677 103.687 92.8634 
46.0875 104.073 92.9381 46.6292 104.453 93.1961 47.1751 104.79 93.6374 
47.7314 105.081 94.2073 48.2919 105.354 94.842 48.8264 105.575 95.5044 
43.7367 102.466 93.8859 43.3301 102.233 94.7201 42.8945 101.968 95.6694 
42.4232 101.672 96.6903 41.9126 101.339 97.7105 41.3786 100.942 98.6852 
40.7871 100.547 99.48 40.141 100.258 100.052 39.5623 100.05 100.576 
44.3083 102.663 92.3317 44.5376 102.663 91.4398 44.7391 102.692 90.492 
44.9793 102.662 89.634 45.5346 102.566 89.2483 46.3619 102.475 89.3518 
47.1743 102.324 89.5621 47.8612 102.07 89.7059 48.4552 101.74 89.8295 
43.7964 102.312 92.9165 43.4689 101.878 92.7155 43.1315 101.33 92.5631 
42.8495 100.643 92.5156 42.7881 99.8761 92.7023 42.9759 99.1264 93.0846 
43.2016 98.3648 93.4852 43.3452 97.6118 93.7747 43.4979 96.9634 93.9959 
45.8118 104.49 102.235 46.2596 104.812 101.763 46.7113 105.141 101.203 
47.158 105.406 100.507 47.5871 105.589 99.7219 47.9557 105.77 98.9068 
48.3105 105.881 98.1294 48.6937 105.863 97.4191 49.0501 105.807 96.7604 
44.7841 103.891 102.711 44.066 103.582 102.748 43.2839 103.248 102.753 
42.6073 102.736 102.663 42.0033 102.111 102.468 41.297 101.593 102.28 
40.5979 101.146 102.073 40.036 100.666 101.835 39.5721 100.215 101.512 
45.8993 104.434 103.101 46.5268 104.683 103.544 47.2729 104.896 103.939 
48.1115 105.063 104.264 49.0471 105.188 104.561 50.0323 105.226 104.798 
51.0426 105.191 104.912 52.0971 105.104 105.021 53.0599 104.947 105.142 
45.2609 104.02 103.377 45.1458 103.75 104.051 45.02 103.395 104.65 
44.8785 102.988 105.272 44.7388 102.562 105.879 44.5926 102.143 106.421 
44.4567 101.706 106.942 44.3535 101.256 107.397 44.3013 100.789 107.706 
52.3614 102.965 98.6559 52.5392 103.274 98.2588 52.6073 103.69 97.8232 
52.4527 104.29 97.4651 52.0912 104.865 97.1884 51.6109 105.253 96.9491 
51.0665 105.469 96.742 50.4764 105.606 96.5261 49.891 105.721 96.2942 
52.8083 102.824 99.4812 53.5406 102.965 99.9777 54.2548 103.14 100.51 
54.7984 103.447 101.136 55.1636 103.892 101.911 55.4358 104.284 102.816 
55.3386 104.544 103.676 54.913 104.671 104.367 54.3899 104.735 104.869 
51.611 102.687 98.1683 51.1126 102.604 97.1538 50.7433 102.419 95.9265 
50.483 102.205 94.5664 50.1975 102.045 93.2633 50.1151 101.823 92.0593 
50.2456 101.552 90.9908 50.186 101.371 90.2426 49.6813 101.356 89.9702 
49.7798 105.969 97.1532 50.2819 106.198 98.1517 50.8892 106.311 99.2123 
51.6258 106.304 100.425 52.3882 106.325 101.624 52.8884 106.25 102.637 
53.2084 105.956 103.481 53.5581 105.582 104.213 53.7874 105.18 104.775 
49.319 105.554 95.1542 49.3209 105.323 94.0598 49.357 105.014 92.9054 
49.4423 104.748 91.5907 49.613 104.56 90.2172 49.8529 104.247 89.2402 
50.006 103.614 88.9381 49.8243 102.798 89.1985 49.3942 102.036 89.616 
41.9873 95.7178 102.701 41.0803 95.8005 102.633 40.1948 95.9065 102.609 
39.3611 96.0826 102.565 38.6631 96.5226 102.44 38.2568 97.2376 102.282 
38.1942 98.0858 102.067 38.4415 98.8361 101.773 38.8059 99.3858 101.475 
42.6674 95.7913 103.396 42.6016 95.9752 104.049 42.5616 96.3959 104.577 
42.5332 96.8748 105.149 42.5905 97.2866 105.891 42.7458 97.637 106.694 
42.9493 98.1208 107.289 43.2976 98.824 107.582 43.7957 99.6014 107.758 
42.4928 95.885 101.974 42.2939 96.0524 101.21 42.3016 96.2536 100.428 
42.569 96.1792 99.4528 42.8637 95.9072 98.2603 43.1107 95.7596 97.1 
43.3868 95.819 96.1767 43.5991 95.9545 95.4319 43.7096 96.1396 94.7872 
39.166 99.7617 102.085 39.3243 99.6939 102.963 39.6024 99.6739 103.8 
39.9766 99.7098 104.625 40.4986 99.7683 105.45 41.1373 99.8475 106.198 
41.8471 99.925 106.797 42.6462 100.015 107.225 43.4779 100.15 107.565 
39.1279 99.5409 100.542 39.2099 99.1696 99.8754 39.4526 98.7434 99.222 
39.9933 98.3462 98.6519 40.8952 98.007 98.1202 41.7477 97.7021 97.3274 
42.2959 97.3817 96.3289 42.7767 97.0569 95.4483 43.2718 96.7277 94.7586 
53.2287 104.412 105.545 52.5158 104.094 105.906 51.7089 103.698 106.255 
50.7903 103.294 106.705 49.734 102.903 107.189 48.5963 102.39 107.462 
47.3657 101.769 107.627 46.1524 101.219 107.869 45.1498 100.736 107.979 
48.2505 100.937 90.227 47.4785 100.39 90.5199 46.6991 99.7157 90.8435 
46.0524 98.9251 91.1017 45.4386 98.1192 91.3614 44.7473 97.3879 91.6938 
44.2406 96.8339 92.152 44.0318 96.5565 92.8068 43.9306 96.4529 93.5576 
47.1667 98.974 96.9466 47.5249 99.6285 97.1639 47.1998 99.5008 97.8513 
47.9596 100.261 97.4498 47.625 100.1 98.1515 47.2449 99.9786 98.8732 
48.4735 100.871 97.8491 48.1407 100.714 98.5554 47.7803 100.529 99.3304 
47.3659 100.4 100.034 49.0336 101.44 98.3575 48.7433 101.296 99.0749 
48.4719 101.062 99.82 48.0949 100.847 100.55 47.7888 100.531 101.112 
49.6864 101.901 98.843 49.4219 101.799 99.6209 49.299 101.486 100.291 
49.0219 101.183 100.952 48.6866 100.853 101.523 48.4471 100.418 101.98 
50.4935 102.198 99.2133 50.2995 102.121 100.005 50.2266 101.828 100.68 
50.0815 101.428 101.23 49.7498 101.089 101.781 49.427 100.722 102.289 
49.0823 100.342 102.723 51.3914 102.363 99.4577 51.2788 102.271 100.217 
51.2081 102.06 100.919 51.1173 101.668 101.449 50.9199 101.248 101.936 
50.5842 100.934 102.487 50.1605 100.605 102.952 49.6592 100.276 103.344 
47.4324 98.3959 95.5031 47.6935 98.4444 94.8915 47.7731 99.1002 95.6779 
47.9769 98.5878 94.1844 48.1261 99.1499 95.0126 48.238 99.7353 95.9374 
48.2901 98.8418 93.3885 48.4623 99.3278 94.2067 48.6181 99.8476 95.1931 
48.7287 100.406 96.2028 48.7281 99.0914 92.5726 48.7851 99.5747 93.3552 
48.9362 100.042 94.3362 49.0429 100.562 95.4378 49.1985 101.057 96.5419 
49.1885 99.4358 91.7099 49.1805 99.887 92.487 49.2139 100.331 93.4333 
49.3438 100.749 94.5664 49.5225 101.172 95.8023 49.7553 101.568 96.986 
49.4833 99.9876 90.9596 49.5629 100.339 91.6195 49.5106 100.751 92.5232 
49.6195 101.065 93.6292 49.8736 101.338 94.9185 50.0929 101.678 96.2519 
50.3391 102.021 97.432 49.6282 100.662 90.4128 49.9173 100.816 90.8851 
49.8537 101.169 91.7053 49.8381 101.48 92.7651 50.0895 101.666 94.0016 
50.3569 101.891 95.3876 50.6112 102.18 96.698 50.9776 102.388 97.8345 
50.0997 102.057 89.6729 50.3928 102.89 89.4495 50.4796 102.115 90.1753 
50.2899 103.695 89.6867 50.5298 102.982 90.3948 50.4291 102.272 91.2615 
50.0115 104.189 90.5263 50.3412 103.732 91.0615 50.5091 103.088 91.8011 
50.3637 102.465 92.6003 49.8714 104.479 91.7435 50.2462 104.156 92.1017 
50.58 103.709 92.6203 50.6731 103.134 93.2866 50.5778 102.609 93.9447 
49.8476 104.832 93.0176 50.2827 104.565 93.2876 50.7083 104.193 93.658 
50.9751 103.694 94.1408 50.9702 103.185 94.7262 50.8636 102.756 95.337 
49.8462 105.18 94.1958 50.3396 104.979 94.4523 50.8078 104.697 94.7642 
51.2005 104.256 95.1322 51.384 103.719 95.5906 51.3777 103.245 96.1155 
51.2673 102.888 96.6651 49.8471 105.46 95.2943 50.3998 105.304 95.5445 
50.9231 105.122 95.8044 51.3966 104.811 96.0824 51.7671 104.3 96.4249 
51.9616 103.718 96.8405 51.9646 103.26 97.3054 51.8239 102.947 97.7802 
53.0189 103.183 99.1688 53.1499 103.614 98.7668 53.7092 103.449 99.6819 
53.1321 104.198 98.3877 53.7733 104.054 99.3237 54.3463 103.8 100.279 
52.8401 104.835 98.1457 53.5833 104.739 99.0578 54.2267 104.533 100.039 
54.7414 104.252 101.027 52.3521 105.317 97.9622 53.1078 105.286 98.9265 
53.804 105.161 99.8933 54.42 104.945 100.933 54.9766 104.661 101.931 
51.7658 105.649 97.7762 52.517 105.707 98.7916 53.2266 105.631 99.8031 
53.8803 105.461 100.85 54.4891 105.193 101.908 55.0466 104.909 102.876 
[...]
POINT_DATA 1002
SCALARS Color_Map_Phi float
LOOKUP_TABLE default
6.28319 3.14159 6.28319 3.14159 4.71239 4.71239 1.5708 1.5708 3.69517 
5.72961 2.58802 0.553574 6.28319 6.28319 6.28319 6.28319 3.14159 3.14159 
3.14159 3.14159 3.14159 6.1053 5.8988 5.67687 5.45995 5.26596 5.10322 
4.97131 4.86569 4.78095 0.177881 0.384387 0.606312 0.823235 1.01722 1.17997 
1.31187 1.4175 1.50223 6.18928 6.10703 6.03531 5.97283 5.91832 5.87061 
5.82869 5.79168 5.75886 0.0939024 0.176153 0.247873 0.310351 0.364864 0.412573 
0.454497 0.491504 0.524326 3.31947 3.52598 3.7479 3.96483 4.15881 4.32156 
4.45346 4.55909 4.64383 2.96371 2.75721 2.53528 2.31836 2.12437 1.96162 
1.82972 1.72409 1.63936 3.2355 3.31775 3.38947 3.45194 3.50646 3.55417 
3.59609 3.6331 3.66592 3.04769 2.96544 2.89372 2.83124 2.77673 2.72902 
2.6871 2.65009 2.61727 6.28319 6.28319 6.28319 6.28319 3.14159 3.14159 
3.14159 3.14159 3.14159 6.1053 5.8988 5.67687 5.45995 5.26596 5.10322 
4.97131 4.86569 4.78095 0.177881 0.384387 0.606312 0.823235 1.01722 1.17997 
1.31187 1.4175 1.50223 6.18928 6.10703 6.03531 5.97283 5.91832 5.87061 
5.82869 5.79168 5.75886 0.0939024 0.176153 0.247873 0.310351 0.364864 0.412573 
0.454497 0.491504 0.524326 3.31947 3.52598 3.7479 3.96483 4.15881 4.32156 
4.45346 4.55909 4.64383 2.96371 2.75721 2.53528 2.31836 2.12437 1.96162 
1.82972 1.72409 1.63936 3.2355 3.31775 3.38947 3.45194 3.50646 3.55417 
3.59609 3.6331 3.66592 3.04769 2.96544 2.89372 2.83124 2.77673 2.72902 
2.6871 2.65009 2.61727 4.71239 4.71239 4.71239 4.71239 4.71239 4.71239 
4.71239 4.71239 4.71239 4.60879 4.49914 4.3857 4.27128 4.15881 4.05096 
3.94976 3.85646 3.77161 4.81599 4.92564 5.03907 5.1535 5.26596 5.37381 
5.47502 5.56831 5.65317 4.60879 4.49914 4.3857 4.27128 4.15881 4.05096 
3.94976 3.85646 3.77161 4.81599 4.92564 5.03907 5.1535 5.26596 5.37381 
5.47502 5.56831 5.65317 1.5708 1.5708 1.5708 1.5708 1.5708 1.5708 
1.5708 1.5708 1.5708 1.6744 1.78405 1.89748 2.01191 2.12437 2.23222 
2.33343 2.42672 2.51157 1.4672 1.35755 1.24411 1.12969 1.01722 0.909371 
0.808166 0.714871 0.63002 1.6744 1.78405 1.89748 2.01191 2.12437 2.23222 
2.33343 2.42672 2.51157 1.4672 1.35755 1.24411 1.12969 1.01722 0.909371 
0.808166 0.714871 0.63002 3.60077 3.49669 3.38395 3.26458 3.14159 3.01861 
2.89924 2.78649 2.68241 5.82401 5.92808 6.04083 6.1602 6.28319 0.122983 
0.242354 0.355101 0.459179 6.05603 5.78856 5.97021 5.51259 5.60297 5.78856 
5.26596 5.26596 5.26596 5.26596 5.06749 5.0121 4.91556 4.71239 4.15881 
4.91556 4.83537 4.71239 4.50922 4.15881 3.63622 4.80045 4.71239 4.58941 
4.41268 4.15881 3.82181 3.45456 4.71239 4.62433 4.50922 4.35729 4.15881 
3.91219 3.63622 3.36875 6.01742 5.94343 5.82633 5.88092 5.76745 5.62798 
5.8278 5.71897 5.58911 5.43724 5.78235 5.67854 5.55757 5.41926 5.26596 
5.74316 5.64441 5.5315 5.40467 5.26596 5.11955 5.70914 5.61528 5.50962 
5.3926 5.26596 5.13292 4.99789 5.67937 5.59016 5.49102 5.38246 5.26596 
5.14407 5.02016 4.89798 5.56831 5.47502 5.47502 5.37381 5.37381 5.37381 
5.26596 5.26596 5.26596 5.26596 5.1535 5.1535 5.1535 5.1535 5.1535 
5.03907 5.03907 5.03907 5.03907 5.03907 5.03907 4.92564 4.92564 4.92564 
4.92564 4.92564 4.92564 4.92564 4.81599 4.81599 4.81599 4.81599 4.81599 
4.81599 4.81599 4.81599 4.60879 4.60879 4.49914 4.60879 4.49914 4.3857 
4.60879 4.49914 4.3857 4.27128 4.60879 4.49914 4.3857 4.27128 4.15881 
4.60879 4.49914 4.3857 4.27128 4.15881 4.05096 4.60879 4.49914 4.3857 
4.27128 4.15881 4.05096 3.94976 4.60879 4.49914 4.3857 4.27128 4.15881 
4.05096 3.94976 3.85646 4.5268 4.40462 4.42689 4.28071 4.29185 4.30523 
4.15881 4.15881 4.15881 4.15881 4.04232 4.03217 4.02011 4.00552 3.98753 
3.93376 3.91515 3.89328 3.86721 3.83566 3.7968 3.83461 3.8095 3.78037 
3.74624 3.70581 3.65733 3.59845 3.7454 3.71564 3.68161 3.64243 3.59698 
3.54386 3.48135 3.40735 3.56428 3.45246 3.52338 3.33203 3.40312 3.47739 
3.20576 3.27463 3.34802 3.42551 3.07742 3.14159 3.21128 3.28647 3.36688 
2.95116 3.00855 3.0719 3.14159 3.21784 3.3006 2.83072 2.88006 2.93517 
2.99672 3.06535 3.14159 3.22575 2.7189 2.7598 2.8058 2.85768 2.9163 
2.98259 3.05743 3.14159 3.56428 3.52338 3.45246 3.47739 3.40312 3.33203 
3.42551 3.34802 3.27463 3.20576 3.36688 3.28647 3.21128 3.14159 3.07742 
3.3006 3.21784 3.14159 3.0719 3.00855 2.95116 3.22575 3.14159 3.06535 
2.99672 2.93517 2.88006 2.83072 3.14159 3.05743 2.98259 2.9163 2.85768 
2.8058 2.7598 2.7189 4.5268 4.42689 4.40462 4.30523 4.29185 4.28071 
4.15881 4.15881 4.15881 4.15881 3.98753 4.00552 4.02011 4.03217 4.04232 
3.7968 3.83566 3.86721 3.89328 3.91515 3.93376 3.59845 3.65733 3.70581 
3.74624 3.78037 3.8095 3.83461 3.40735 3.48135 3.54386 3.59698 3.64243 
3.68161 3.71564 3.7454 4.71239 4.80045 4.62433 4.91556 4.71239 4.50922 
5.06749 4.83537 4.58941 4.35729 5.26596 5.0121 4.71239 4.41268 4.15881 
5.51259 5.26596 4.91556 4.50922 4.15881 3.91219 5.78856 5.60297 5.26596 
4.71239 4.15881 3.82181 3.63622 6.05603 5.97021 5.78856 5.26596 4.15881 
3.63622 3.45456 3.36875 0.227158 0.494626 0.312971 0.770593 0.680215 0.494626 
1.01722 1.01722 1.01722 1.01722 1.2157 1.27109 1.36763 1.5708 2.12437 
1.36763 1.44781 1.5708 1.77397 2.12437 2.64697 1.48273 1.5708 1.69378 
1.8705 2.12437 2.46138 2.82862 1.5708 1.65886 1.77397 1.9259 2.12437 
2.371 2.64697 2.91443 1.75639 1.87857 1.8563 2.00248 1.99133 1.97796 
2.12437 2.12437 2.12437 2.12437 2.24087 2.25101 2.26308 2.27767 2.29565 
2.34943 2.36803 2.38991 2.41597 2.44752 2.48639 2.44857 2.47368 2.50281 
2.53694 2.57738 2.62586 2.68474 2.53778 2.56754 2.60157 2.64076 2.68621 
2.73933 2.80184 2.87583 1.6744 1.6744 1.78405 1.6744 1.78405 1.89748 
1.6744 1.78405 1.89748 2.01191 1.6744 1.78405 1.89748 2.01191 2.12437 
1.6744 1.78405 1.89748 2.01191 2.12437 2.23222 1.6744 1.78405 1.89748 
2.01191 2.12437 2.23222 2.33343 1.6744 1.78405 1.89748 2.01191 2.12437 
2.23222 2.33343 2.42672 1.4672 1.35755 1.4672 1.24411 1.35755 1.4672 
1.12969 1.24411 1.35755 1.4672 1.01722 1.12969 1.24411 1.35755 1.4672 
0.909371 1.01722 1.12969 1.24411 1.35755 1.4672 0.808166 0.909371 1.01722 
1.12969 1.24411 1.35755 1.4672 0.714871 0.808166 0.909371 1.01722 1.12969 
1.24411 1.35755 1.4672 0.603812 0.57405 0.693022 0.540021 0.667908 0.792164 
0.500837 0.638778 0.773562 0.900726 0.455383 0.604649 0.751687 0.890581 1.01722 
0.402264 0.564217 0.725619 0.878514 1.01722 1.13912 0.339753 0.515737 0.694072 
0.863926 1.01722 1.15026 1.26302 0.265762 0.456853 0.655207 0.845941 1.01722 
1.16363 1.28529 1.38521 0.227158 0.312971 0.494626 0.494626 0.680215 0.770593 
1.01722 1.01722 1.01722 1.01722 2.12437 1.5708 1.36763 1.27109 1.2157 
2.64697 2.12437 1.77397 1.5708 1.44781 1.36763 2.82862 2.46138 2.12437 
1.8705 1.69378 1.5708 1.48273 2.91443 2.64697 2.371 2.12437 1.9259 
1.77397 1.65886 1.5708 1.75639 1.8563 1.87857 1.97796 1.99133 2.00248 
2.12437 2.12437 2.12437 2.12437 2.29565 2.27767 2.26308 2.25101 2.24087 
2.48639 2.44752 2.41597 2.38991 2.36803 2.34943 2.68474 2.62586 2.57738 
2.53694 2.50281 2.47368 2.44857 2.87583 2.80184 2.73933 2.68621 2.64076 
2.60157 2.56754 2.53778 5.86049 5.90139 5.97231 5.94739 6.02165 6.09275 
5.99927 6.07676 6.15015 6.21902 6.0579 6.13831 6.2135 0 0.0641696 
6.12418 6.20694 6.28319 0.069689 0.13304 0.190437 6.19903 0 0.0762451 
0.144876 0.206423 0.261531 0.310872 0 0.0841597 0.159004 0.225289 0.283913 
0.335793 0.381792 0.422692 5.86049 5.97231 5.90139 6.09275 6.02165 5.94739 
6.21902 6.15015 6.07676 5.99927 0.0641696 0 6.2135 6.13831 6.0579 
0.190437 0.13304 0.069689 6.28319 6.20694 6.12418 0.310872 0.261531 0.206423 
0.144876 0.0762451 6.28319 6.19903 0.422692 0.381792 0.335793 0.283913 0.225289 
0.159004 0.0841597 0 5.67937 5.70914 5.59016 5.74316 5.61528 5.49102 
5.78235 5.64441 5.50962 5.38246 5.8278 5.67854 5.5315 5.3926 5.26596 
5.88092 5.71897 5.55757 5.40467 5.26596 5.14407 5.94343 5.76745 5.58911 
5.41926 5.26596 5.13292 5.02016 6.01742 5.82633 5.62798 5.43724 5.26596 
5.11955 4.99789 4.89798 1.38521 1.28529 1.26302 1.16363 1.15026 1.13912 
1.01722 1.01722 1.01722 1.01722 0.845941 0.863926 0.878514 0.890581 0.900726 
0.655207 0.694072 0.725619 0.751687 0.773562 0.792164 0.456853 0.515737 0.564217 
0.604649 0.638778 0.667908 0.693022 0.265762 0.339753 0.402264 0.455383 0.500837 
0.540021 0.57405 0.603812 
