# vtk DataFile Version 4.1
vtk output
ASCII
DATASET POLYDATA
POINTS 1002 float
47.5528 95.3289 95.9935 50.9672 97.4985 104.316 43.8636 102.682 92.9744 
45.1105 105.031 100.909 51.7645 100.51 97.9693 49.5039 104.972 94.6298 
42.0021 96.7876 102.615 39.5899 101.246 100.788 52.5325 104.662 103.71 
48.2582 99.5829 90.8202 44.8439 101.56 106.621 43.1463 97.1586 94.9386 
47.3881 96.2448 96.5202 47.361 96.9954 97.3221 47.5079 97.6082 98.4618 
47.7556 98.0375 99.6979 48.1657 98.1808 100.811 48.7822 98.0756 101.822 
49.4129 97.9299 102.68 50.0609 97.6694 103.29 50.6362 97.4358 103.81 
47.66 96.0084 95.992 47.8672 96.7509 96.0791 48.233 97.3895 96.2636 
48.6753 97.9507 96.5177 49.1663 98.5225 96.8065 49.779 98.9766 97.1136 
50.3803 99.3973 97.4325 50.9276 99.7646 97.7051 51.3891 100.131 97.8805 
47.2777 95.3923 96.3817 46.9626 95.5819 96.9115 46.6349 95.7834 97.6387 
46.1586 96.0506 98.4558 45.5134 96.3073 99.2749 44.7301 96.5035 100.098 
43.9108 96.5821 100.972 43.1828 96.5799 101.751 42.5453 96.6248 102.277 
47.7359 94.814 95.4732 47.8752 94.4469 94.9017 48.0851 94.4643 94.3624 
48.391 94.847 93.7875 48.6273 95.4658 93.0973 48.6725 96.2402 92.4918 
48.5923 97.174 91.9771 48.4615 98.0832 91.5301 48.34 98.8864 91.1534 
47.4849 94.4111 95.7516 47.2244 93.6889 95.474 46.7891 93.4335 95.1376 
46.3026 93.7423 94.8274 45.7715 94.3129 94.6474 45.1547 94.9415 94.5388 
44.541 95.6046 94.4712 44.0075 96.2261 94.5731 43.5548 96.7439 94.7551 
51.4906 97.6009 103.856 51.9986 97.7673 103.316 52.2979 98.174 102.822 
52.4732 98.6218 102.351 52.456 99.0648 101.76 52.3249 99.471 101.021 
52.2197 99.7991 100.209 52.1353 100.011 99.3444 51.9819 100.234 98.5689 
50.2345 97.2958 104.4 49.3786 97.1308 104.46 48.4172 97.1122 104.412 
47.4175 97.2145 104.281 46.4178 97.3128 104.095 45.4032 97.3536 103.769 
44.4289 97.3461 103.377 43.5578 97.2324 103.053 42.7564 97.0206 102.816 
51.444 97.8343 104.525 51.8366 98.3544 104.703 52.2209 98.9671 104.716 
52.5244 99.7176 104.69 52.6087 100.605 104.62 52.575 101.498 104.452 
52.5889 102.359 104.278 52.5994 103.274 104.177 52.5999 104.099 103.985 
50.6603 97.6668 104.799 50.2195 98.0028 105.253 49.7008 98.4179 105.663 
49.0459 98.9013 106.017 48.2401 99.4371 106.325 47.4795 99.9056 106.683 
46.8278 100.34 107.03 46.1254 100.823 107.105 45.4158 101.251 106.889 
43.895 103.019 93.5606 43.9419 103.352 94.2493 43.9652 103.716 95.0195 
43.996 104.084 95.8783 44.064 104.433 96.7439 44.1284 104.795 97.6043 
44.2451 105.061 98.5339 44.4974 105.141 99.5065 44.802 105.113 100.307 
44.2769 102.958 92.6926 44.7174 103.269 92.4066 45.1999 103.63 92.1857 
45.7283 103.996 92.1042 46.324 104.291 92.1947 47.0551 104.51 92.4649 
47.8014 104.69 92.9085 48.3967 104.801 93.493 48.9597 104.892 94.0839 
43.4661 102.62 93.6312 43.0708 102.515 94.443 42.6609 102.358 95.3479 
42.1678 102.192 96.2272 41.6592 101.995 97.139 41.2697 101.713 98.115 
40.8686 101.469 98.9593 40.3819 101.378 99.6469 39.9398 101.327 100.254 
44.0832 102.511 92.2281 44.2481 102.38 91.3662 44.3373 102.286 90.444 
44.5607 102.115 89.769 45.1785 101.803 89.665 46.0228 101.423 89.9242 
46.6988 101.037 90.1396 47.2316 100.603 90.3386 47.7784 100.092 90.5889 
43.5951 102.279 92.8357 43.3116 101.806 92.7589 42.9646 101.317 92.7603 
42.6857 100.672 92.8354 42.574 99.8797 93.0645 42.6005 99.105 93.4725 
42.6962 98.4892 93.9087 42.8303 97.9582 94.2824 42.9993 97.5256 94.6382 
45.5462 105.257 100.435 45.9844 105.475 99.832 46.4225 105.693 99.1456 
46.8425 105.911 98.4159 47.3282 105.929 97.5703 47.8544 105.863 96.712 
48.3866 105.771 96.0093 48.8612 105.576 95.4529 49.2324 105.274 95.0073 
44.5057 104.798 100.973 43.8463 104.54 101.028 43.0979 104.354 101.143 
42.3191 104.09 101.199 41.5806 103.773 101.202 40.9635 103.407 101.114 
40.4436 102.931 100.994 40.0349 102.399 100.89 39.7745 101.833 100.838 
45.7414 105.032 101.18 46.4539 105.025 101.488 47.1894 105.09 101.888 
47.9352 105.208 102.336 48.7303 105.275 102.735 49.5622 105.319 103.137 
50.4446 105.333 103.507 51.3414 105.203 103.684 52.0498 104.972 103.734 
45.0564 104.804 101.555 44.9814 104.618 102.341 44.8688 104.431 103.158 
44.7447 104.159 103.888 44.6738 103.821 104.583 44.6492 103.439 105.22 
44.6516 102.992 105.734 44.7167 102.497 106.121 44.7972 102.016 106.423 
51.8232 100.953 97.6235 51.8645 101.42 97.1933 51.8546 101.97 96.707 
51.7322 102.63 96.2548 51.4765 103.233 95.895 51.1088 103.732 95.5888 
50.7442 104.217 95.2349 50.4054 104.61 94.9203 49.9968 104.841 94.7354 
52.231 100.767 98.3801 52.6027 101.119 98.9247 52.8866 101.55 99.5807 
53.1689 102.06 100.215 53.404 102.623 100.801 53.4679 103.177 101.518 
53.413 103.704 102.311 53.2698 104.17 102.889 52.967 104.491 103.338 
51.3412 100.533 97.3148 51.0021 100.469 96.4156 50.7568 100.25 95.3054 
50.4965 100.031 94.2519 50.2052 99.8791 93.2872 49.9955 99.7486 92.3859 
49.7858 99.6015 91.5934 49.4018 99.4875 91.0587 48.8402 99.5002 90.8524 
49.8947 105.242 95.3926 50.2616 105.461 96.2806 50.597 105.559 97.2966 
50.9959 105.571 98.3781 51.3919 105.54 99.5161 51.7631 105.494 100.613 
52.2132 105.449 101.571 52.5717 105.319 102.412 52.6459 105.035 103.142 
49.4479 104.655 93.9071 49.413 104.31 93.0808 49.3735 103.921 92.1904 
49.3059 103.493 91.3554 49.3324 103.015 90.5718 49.4179 102.385 89.9745 
49.2888 101.617 89.8669 48.9463 100.875 90.1212 48.5688 100.206 90.4734 
41.2183 96.7926 102.691 40.438 96.8695 102.76 39.7995 97.127 102.697 
39.3076 97.5 102.56 38.9772 98.0555 102.426 38.8531 98.8989 102.169 
38.8685 99.7666 101.781 39.0429 100.326 101.394 39.3232 100.785 101.075 
41.9938 97.2061 103.044 42.0888 97.6646 103.553 42.2663 98.1045 104.13 
42.5063 98.5519 104.676 42.765 99.0125 105.281 42.9965 99.4294 105.934 
43.3262 99.9205 106.367 43.8242 100.508 106.533 44.3733 101.07 106.599 
41.6272 96.4582 102.202 41.3822 96.1653 101.618 41.2615 96.0617 100.793 
41.2727 96.154 99.8834 41.4305 96.3888 98.9255 41.7492 96.4927 97.8633 
42.1812 96.5433 96.9033 42.6347 96.7327 96.1724 42.9701 96.9694 95.5418 
39.4757 101.459 101.415 39.5549 101.551 102.231 39.7728 101.643 103.168 
40.1435 101.738 104.048 40.6751 101.799 104.847 41.3176 101.785 105.477 
42.1068 101.723 105.908 43.0559 101.624 106.161 44.0176 101.573 106.373 
39.6981 100.647 100.4 39.8594 100.026 99.9061 39.9731 99.5153 99.256 
39.991 99.1084 98.4234 40.0352 98.6519 97.5239 40.3288 98.1375 96.7961 
41.0537 97.7501 96.379 41.8785 97.543 95.9605 42.6112 97.3874 95.4733 
52.1235 104.473 104.231 51.6631 104.251 104.749 51.0119 103.956 105.213 
50.195 103.589 105.633 49.3519 103.224 106.037 48.4238 102.906 106.384 
47.3708 102.583 106.642 46.3786 102.222 106.807 45.5906 101.865 106.764 
47.7052 99.2431 91.0267 47.0852 98.8249 91.2137 46.4372 98.3977 91.4117 
45.7969 97.9845 91.632 45.0693 97.5427 91.8162 44.4002 97.2031 92.0934 
44.05 97.0952 92.6989 43.8259 97.1011 93.4705 43.5189 97.1243 94.2351 
47.6358 96.8106 96.6733 47.965 97.4545 96.8973 47.7256 97.526 97.6416 
48.3808 98.0153 97.2034 48.1302 98.0832 98.0039 47.9171 98.1166 98.8574 
48.9012 98.4904 97.5283 48.5615 98.5696 98.3666 48.3574 98.6086 99.2687 
48.2528 98.4679 100.065 49.5756 98.8901 97.8637 49.3082 98.8704 98.693 
48.9897 98.9443 99.6134 48.8855 98.7744 100.441 48.8923 98.3876 101.11 
50.3367 99.2063 98.2095 50.2211 99.075 99.0205 50.0044 99.0369 99.8876 
49.7469 98.9739 100.794 49.6977 98.597 101.448 49.628 98.1907 102.036 
50.9719 99.5501 98.4357 51.0019 99.3435 99.2768 50.9863 99.1371 100.113 
50.8251 98.9863 100.988 50.6416 98.734 101.714 50.5315 98.3098 102.194 
50.3474 97.9499 102.701 51.5222 99.883 98.5443 51.6216 99.6803 99.3572 
51.7074 99.4243 100.218 51.7253 99.1266 101.023 51.6338 98.8238 101.78 
51.5136 98.4201 102.308 51.337 97.9968 102.74 51.0263 97.6852 103.287 
47.8446 95.6946 95.4331 48.0202 95.5192 94.8582 48.0832 96.5083 95.4818 
48.3098 95.5784 94.3235 48.3434 96.4292 94.8981 48.5084 97.2228 95.6279 
48.7034 95.8578 93.6678 48.6851 96.519 94.3233 48.8259 97.1975 95.0372 
48.9745 97.9052 95.8727 49.0403 96.2942 92.9221 49.0493 96.7476 93.6066 
49.1271 97.3742 94.3905 49.2999 98.0067 95.2273 49.4654 98.5925 96.1458 
49.1725 97.0307 92.2381 49.4063 97.189 92.8301 49.4496 97.6856 93.6247 
49.6107 98.2147 94.5196 49.7783 98.7242 95.4787 49.9996 99.1574 96.4436 
49.0797 97.935 91.6542 49.5159 97.9533 92.1297 49.6778 98.2129 92.8795 
49.8568 98.5613 93.7537 50.0744 98.9126 94.7528 50.2695 99.3322 95.7948 
50.5375 99.6467 96.8051 48.9287 98.7799 91.2311 49.4293 98.7913 91.5612 
49.7526 98.9251 92.2089 49.9341 99.128 93.0333 50.2045 99.3047 93.9578 
50.4433 99.6128 95.0167 50.6807 99.9325 96.1072 50.9806 100.11 97.1125 
49.2403 100.157 90.5423 49.6186 100.889 90.3185 49.804 100.206 90.8823 
49.774 101.682 90.386 50.0566 100.98 90.8934 50.098 100.34 91.6008 
49.6989 102.426 90.8964 50.0875 101.743 91.2626 50.2861 101.095 91.8278 
50.2585 100.478 92.5943 49.6637 103.017 91.6134 50.0353 102.415 91.9325 
50.3854 101.813 92.3135 50.5247 101.199 92.9612 50.5247 100.578 93.6385 
49.769 103.537 92.3552 50.0879 103.005 92.6677 50.413 102.458 93.0153 
50.7115 101.888 93.5016 50.8358 101.231 94.1278 50.8235 100.671 94.7075 
49.8683 104.03 93.1823 50.2082 103.591 93.4338 50.4863 103.06 93.8028 
50.7936 102.533 94.2083 51.0432 101.897 94.7025 51.1471 101.261 95.2348 
51.1042 100.807 95.8141 49.9259 104.466 94.0079 50.3116 104.149 94.209 
50.6182 103.664 94.5566 50.9421 103.159 94.9323 51.2421 102.592 95.3289 
51.4334 101.937 95.777 51.4802 101.36 96.313 51.4208 100.929 96.8623 
52.2543 101.298 98.0344 52.2511 101.864 97.6226 52.5957 101.726 98.5634 
52.1614 102.521 97.1846 52.5162 102.378 98.2136 52.8417 102.249 99.2534 
51.9662 103.239 96.7932 52.3373 103.127 97.8646 52.6857 103.011 98.9905 
53.0581 102.861 99.9333 51.6495 103.83 96.4925 52.093 103.846 97.4892 
52.4544 103.779 98.6468 52.8408 103.655 99.7036 53.2226 103.471 100.567 
51.2106 104.308 96.2066 51.7181 104.398 97.1737 52.1417 104.411 98.2646 
52.5148 104.314 99.4297 52.9511 104.213 100.431 53.3105 104.057 101.35 
[...]
POINT_DATA 1002
SCALARS Color_Map_Phi float
LOOKUP_TABLE default
6.28319 3.14159 6.28319 3.14159 4.71239 4.71239 1.5708 1.5708 3.69517 
5.72961 2.58802 0.553574 6.28319 6.28319 6.28319 6.28319 3.14159 3.14159 
3.14159 3.14159 3.14159 6.1053 5.8988 5.67687 5.45995 5.26596 5.10322 
4.97131 4.86569 4.78095 0.177881 0.384387 0.606312 0.823235 1.01722 1.17997 
1.31187 1.4175 1.50223 6.18928 6.10703 6.03531 5.97283 5.91832 5.87061 
5.82869 5.79168 5.75886 0.0939024 0.176153 0.247873 0.310351 0.364864 0.412573 
0.454497 0.491504 0.524326 3.31947 3.52598 3.7479 3.96483 4.15881 4.32156 
4.45346 4.55909 4.64383 2.96371 2.75721 2.53528 2.31836 2.12437 1.96162 
1.82972 1.72409 1.63936 3.2355 3.31775 3.38947 3.45194 3.50646 3.55417 
3.59609 3.6331 3.66592 3.04769 2.96544 2.89372 2.83124 2.77673 2.72902 
2.6871 2.65009 2.61727 6.28319 6.28319 6.28319 6.28319 3.14159 3.14159 
3.14159 3.14159 3.14159 6.1053 5.8988 5.67687 5.45995 5.26596 5.10322 
4.97131 4.86569 4.78095 0.177881 0.384387 0.606312 0.823235 1.01722 1.17997 
1.31187 1.4175 1.50223 6.18928 6.10703 6.03531 5.97283 5.91832 5.87061 
5.82869 5.79168 5.75886 0.0939024 0.176153 0.247873 0.310351 0.364864 0.412573 
0.454497 0.491504 0.524326 3.31947 3.52598 3.7479 3.96483 4.15881 4.32156 
4.45346 4.55909 4.64383 2.96371 2.75721 2.53528 2.31836 2.12437 1.96162 
1.82972 1.72409 1.63936 3.2355 3.31775 3.38947 3.45194 3.50646 3.55417 
3.59609 3.6331 3.66592 3.04769 2.96544 2.89372 2.83124 2.77673 2.72902 
2.6871 2.65009 2.61727 4.71239 4.71239 4.71239 4.71239 4.71239 4.71239 
4.71239 4.71239 4.71239 4.60879 4.49914 4.3857 4.27128 4.15881 4.05096 
3.94976 3.85646 3.77161 4.81599 4.92564 5.03907 5.1535 5.26596 5.37381 
5.47502 5.56831 5.65317 4.60879 4.49914 4.3857 4.27128 4.15881 4.05096 
3.94976 3.85646 3.77161 4.81599 4.92564 5.03907 5.1535 5.26596 5.37381 
5.47502 5.56831 5.65317 1.5708 1.5708 1.5708 1.5708 1.5708 1.5708 
1.5708 1.5708 1.5708 1.6744 1.78405 1.89748 2.01191 2.12437 2.23222 
2.33343 2.42672 2.51157 1.4672 1.35755 1.24411 1.12969 1.01722 0.909371 
0.808166 0.714871 0.63002 1.6744 1.78405 1.89748 2.01191 2.12437 2.23222 
2.33343 2.42672 2.51157 1.4672 1.35755 1.24411 1.12969 1.01722 0.909371 
0.808166 0.714871 0.63002 3.60077 3.49669 3.38395 3.26458 3.14159 3.01861 
2.89924 2.78649 2.68241 5.82401 5.92808 6.04083 6.1602 6.28319 0.122983 
0.242354 0.355101 0.459179 6.05603 5.78856 5.97021 5.51259 5.60297 5.78856 
5.26596 5.26596 5.26596 5.26596 5.06749 5.0121 4.91556 4.71239 4.15881 
4.91556 4.83537 4.71239 4.50922 4.15881 3.63622 4.80045 4.71239 4.58941 
4.41268 4.15881 3.82181 3.45456 4.71239 4.62433 4.50922 4.35729 4.15881 
3.91219 3.63622 3.36875 6.01742 5.94343 5.82633 5.88092 5.76745 5.62798 
5.8278 5.71897 5.58911 5.43724 5.78235 5.67854 5.55757 5.41926 5.26596 
5.74316 5.64441 5.5315 5.40467 5.26596 5.11955 5.70914 5.61528 5.50962 
5.3926 5.26596 5.13292 4.99789 5.67937 5.59016 5.49102 5.38246 5.26596 
5.14407 5.02016 4.89798 5.56831 5.47502 5.47502 5.37381 5.37381 5.37381 
5.26596 5.26596 5.26596 5.26596 5.1535 5.1535 5.1535 5.1535 5.1535 
5.03907 5.03907 5.03907 5.03907 5.03907 5.03907 4.92564 4.92564 4.92564 
4.92564 4.92564 4.92564 4.92564 4.81599 4.81599 4.81599 4.81599 4.81599 
4.81599 4.81599 4.81599 4.60879 4.60879 4.49914 4.60879 4.49914 4.3857 
4.60879 4.49914 4.3857 4.27128 4.60879 4.49914 4.3857 4.27128 4.15881 
4.60879 4.49914 4.3857 4.27128 4.15881 4.05096 4.60879 4.49914 4.3857 
4.27128 4.15881 4.05096 3.94976 4.60879 4.49914 4.3857 4.27128 4.15881 
4.05096 3.94976 3.85646 4.5268 4.40462 4.42689 4.28071 4.29185 4.30523 
4.15881 4.15881 4.15881 4.15881 4.04232 4.03217 4.02011 4.00552 3.98753 
3.93376 3.91515 3.89328 3.86721 3.83566 3.7968 3.83461 3.8095 3.78037 
3.74624 3.70581 3.65733 3.59845 3.7454 3.71564 3.68161 3.64243 3.59698 
3.54386 3.48135 3.40735 3.56428 3.45246 3.52338 3.33203 3.40312 3.47739 
3.20576 3.27463 3.34802 3.42551 3.07742 3.14159 3.21128 3.28647 3.36688 
2.95116 3.00855 3.0719 3.14159 3.21784 3.3006 2.83072 2.88006 2.93517 
2.99672 3.06535 3.14159 3.22575 2.7189 2.7598 2.8058 2.85768 2.9163 
2.98259 3.05743 3.14159 3.56428 3.52338 3.45246 3.47739 3.40312 3.33203 
3.42551 3.34802 3.27463 3.20576 3.36688 3.28647 3.21128 3.14159 3.07742 
3.3006 3.21784 3.14159 3.0719 3.00855 2.95116 3.22575 3.14159 3.06535 
2.99672 2.93517 2.88006 2.83072 3.14159 3.05743 2.98259 2.9163 2.85768 
2.8058 2.7598 2.7189 4.5268 4.42689 4.40462 4.30523 4.29185 4.28071 
4.15881 4.15881 4.15881 4.15881 3.98753 4.00552 4.02011 4.03217 4.04232 
3.7968 3.83566 3.86721 3.89328 3.91515 3.93376 3.59845 3.65733 3.70581 
3.74624 3.78037 3.8095 3.83461 3.40735 3.48135 3.54386 3.59698 3.64243 
3.68161 3.71564 3.7454 4.71239 4.80045 4.62433 4.91556 4.71239 4.50922 
5.06749 4.83537 4.58941 4.35729 5.26596 5.0121 4.71239 4.41268 4.15881 
5.51259 5.26596 4.91556 4.50922 4.15881 3.91219 5.78856 5.60297 5.26596 
4.71239 4.15881 3.82181 3.63622 6.05603 5.97021 5.78856 5.26596 4.15881 
3.63622 3.45456 3.36875 0.227158 0.494626 0.312971 0.770593 0.680215 0.494626 
1.01722 1.01722 1.01722 1.01722 1.2157 1.27109 1.36763 1.5708 2.12437 
1.36763 1.44781 1.5708 1.77397 2.12437 2.64697 1.48273 1.5708 1.69378 
1.8705 2.12437 2.46138 2.82862 1.5708 1.65886 1.77397 1.9259 2.12437 
2.371 2.64697 2.91443 1.75639 1.87857 1.8563 2.00248 1.99133 1.97796 
2.12437 2.12437 2.12437 2.12437 2.24087 2.25101 2.26308 2.27767 2.29565 
2.34943 2.36803 2.38991 2.41597 2.44752 2.48639 2.44857 2.47368 2.50281 
2.53694 2.57738 2.62586 2.68474 2.53778 2.56754 2.60157 2.64076 2.68621 
2.73933 2.80184 2.87583 1.6744 1.6744 1.78405 1.6744 1.78405 1.89748 
1.6744 1.78405 1.89748 2.01191 1.6744 1.78405 1.89748 2.01191 2.12437 
1.6744 1.78405 1.89748 2.01191 2.12437 2.23222 1.6744 1.78405 1.89748 
2.01191 2.12437 2.23222 2.33343 1.6744 1.78405 1.89748 2.01191 2.12437 
2.23222 2.33343 2.42672 1.4672 1.35755 1.4672 1.24411 1.35755 1.4672 
1.12969 1.24411 1.35755 1.4672 1.01722 1.12969 1.24411 1.35755 1.4672 
0.909371 1.01722 1.12969 1.24411 1.35755 1.4672 0.808166 0.909371 1.01722 
1.12969 1.24411 1.35755 1.4672 0.714871 0.808166 0.909371 1.01722 1.12969 
1.24411 1.35755 1.4672 0.603812 0.57405 0.693022 0.540021 0.667908 0.792164 
0.500837 0.638778 0.773562 0.900726 0.455383 0.604649 0.751687 0.890581 1.01722 
0.402264 0.564217 0.725619 0.878514 1.01722 1.13912 0.339753 0.515737 0.694072 
0.863926 1.01722 1.15026 1.26302 0.265762 0.456853 0.655207 0.845941 1.01722 
1.16363 1.28529 1.38521 0.227158 0.312971 0.494626 0.494626 0.680215 0.770593 
1.01722 1.01722 1.01722 1.01722 2.12437 1.5708 1.36763 1.27109 1.2157 
2.64697 2.12437 1.77397 1.5708 1.44781 1.36763 2.82862 2.46138 2.12437 
1.8705 1.69378 1.5708 1.48273 2.91443 2.64697 2.371 2.12437 1.9259 
1.77397 1.65886 1.5708 1.75639 1.8563 1.87857 1.97796 1.99133 2.00248 
2.12437 2.12437 2.12437 2.12437 2.29565 2.27767 2.26308 2.25101 2.24087 
2.48639 2.44752 2.41597 2.38991 2.36803 2.34943 2.68474 2.62586 2.57738 
2.53694 2.50281 2.47368 2.44857 2.87583 2.80184 2.73933 2.68621 2.64076 
2.60157 2.56754 2.53778 5.86049 5.90139 5.97231 5.94739 6.02165 6.09275 
5.99927 6.07676 6.15015 6.21902 6.0579 6.13831 6.2135 0 0.0641696 
6.12418 6.20694 6.28319 0.069689 0.13304 0.190437 6.19903 0 0.0762451 
0.144876 0.206423 0.261531 0.310872 0 0.0841597 0.159004 0.225289 0.283913 
0.335793 0.381792 0.422692 5.86049 5.97231 5.90139 6.09275 6.02165 5.94739 
6.21902 6.15015 6.07676 5.99927 0.0641696 0 6.2135 6.13831 6.0579 
0.190437 0.13304 0.069689 6.28319 6.20694 6.12418 0.310872 0.261531 0.206423 
0.144876 0.0762451 6.28319 6.19903 0.422692 0.381792 0.335793 0.283913 0.225289 
0.159004 0.0841597 0 5.67937 5.70914 5.59016 5.74316 5.61528 5.49102 
5.78235 5.64441 5.50962 5.38246 5.8278 5.67854 5.5315 5.3926 5.26596 
5.88092 5.71897 5.55757 5.40467 5.26596 5.14407 5.94343 5.76745 5.58911 
5.41926 5.26596 5.13292 5.02016 6.01742 5.82633 5.62798 5.43724 5.26596 
5.11955 4.99789 4.89798 1.38521 1.28529 1.26302 1.16363 1.15026 1.13912 
1.01722 1.01722 1.01722 1.01722 0.845941 0.863926 0.878514 0.890581 0.900726 
0.655207 0.694072 0.725619 0.751687 0.773562 0.792164 0.456853 0.515737 0.564217 
0.604649 0.638778 0.667908 0.693022 0.265762 0.339753 0.402264 0.455383 0.500837 
0.540021 0.57405 0.603812 
