# vtk DataFile Version 4.1
vtk output
ASCII
DATASET POLYDATA
POINTS 1002 float
47.2313 96.4594 95.0413 49.6977 98.6541 103.688 45.4618 103.346 95.1088 
46.7449 106.421 101.845 52.3042 100.96 98.1616 51.1266 105.703 96.8591 
41.2456 97.0358 102.123 39.8818 101.975 100.516 53.1724 104.633 104.564 
49.0882 100.364 90.283 44.4942 101.776 105.957 43.7414 98.0547 94.8927 
47.3047 96.9805 95.6628 47.3814 97.4621 96.5079 47.4799 97.8527 97.4838 
47.6051 98.1897 98.5788 47.7993 98.4367 99.8456 48.2009 98.4473 100.923 
48.7577 98.2852 101.689 49.2407 98.2012 102.452 49.5378 98.3456 103.167 
47.6449 96.8446 95.0922 48.1135 97.2826 95.2042 48.5508 97.7728 95.4002 
48.9669 98.3758 95.6864 49.4336 98.9716 96.0628 49.9947 99.4038 96.5405 
50.6387 99.8006 97.1028 51.2644 100.231 97.6127 51.8125 100.619 97.9561 
46.9051 96.481 95.4151 46.5075 96.5732 95.9319 46.0152 96.7129 96.5732 
45.4962 96.8667 97.3413 44.9295 96.9879 98.2658 44.1758 96.9823 99.2463 
43.3759 96.9015 100.132 42.6848 96.9229 100.913 41.9613 96.9901 101.586 
47.4338 96.1646 94.5521 47.7481 95.9198 94.0204 48.1761 95.7945 93.4534 
48.5901 95.926 92.8925 48.8297 96.4451 92.3534 48.8911 97.2613 91.8714 
48.9019 98.1539 91.4452 48.9401 98.9897 91.0371 49.0078 99.7233 90.6464 
46.9997 95.8718 94.78 46.8181 95.1213 94.5634 46.5176 94.3181 94.4051 
45.9619 93.8831 94.2982 45.3516 94.2126 94.1832 44.9873 95.1538 94.1636 
44.7648 96.169 94.3464 44.435 96.9657 94.5721 44.059 97.5625 94.7148 
50.3282 98.6294 103.4 50.8904 98.708 103.008 51.3068 98.9861 102.548 
51.616 99.3607 102.027 51.8801 99.6857 101.374 52.1 99.9464 100.638 
52.2829 100.166 99.9361 52.3793 100.407 99.29 52.3502 100.702 98.7029 
48.9891 98.425 103.665 48.2778 98.0988 103.648 47.4764 97.809 103.635 
46.4668 97.6457 103.568 45.4184 97.4363 103.448 44.5771 97.1355 103.293 
43.7387 97.0245 103.07 42.7551 97.0651 102.752 41.8905 97.0579 102.432 
50.2229 99.0145 103.958 50.7734 99.4523 104.238 51.3457 99.9523 104.555 
51.959 100.45 104.866 52.5768 100.996 105.137 53.0644 101.693 105.326 
53.3131 102.5 105.308 53.3693 103.314 105.12 53.3084 104.041 104.861 
49.3546 98.9029 104.082 48.9804 99.1221 104.504 48.531 99.3658 104.948 
47.9319 99.6797 105.294 47.2764 99.9205 105.643 46.6127 100.08 106.041 
45.8886 100.395 106.265 45.1966 100.904 106.272 44.7338 101.4 106.17 
45.4446 103.818 95.6469 45.464 104.262 96.2863 45.5128 104.706 96.9706 
45.5957 105.229 97.6349 45.7354 105.709 98.3527 45.8489 106.099 99.0971 
45.954 106.414 99.8439 46.1784 106.521 100.608 46.4748 106.476 101.284 
45.8479 103.682 94.9952 46.2952 104.031 94.9174 46.8245 104.353 94.9139 
47.4098 104.674 94.9863 48.0264 105.055 95.1223 48.6972 105.358 95.3984 
49.4085 105.491 95.788 50.0754 105.6 96.1674 50.6427 105.696 96.5251 
45.0388 103.313 95.5677 44.5636 103.238 96.1155 44.0538 103.123 96.7333 
43.4875 103.009 97.3654 42.8942 102.845 98.0479 42.2721 102.627 98.7375 
41.5451 102.522 99.2554 40.8289 102.441 99.632 40.288 102.22 100.044 
45.7041 103.112 94.4635 45.8937 102.938 93.6198 46.1275 102.734 92.6968 
46.4478 102.452 91.8303 46.7217 102.223 90.9297 46.9979 102.051 90.0788 
47.5135 101.753 89.7234 48.1811 101.316 89.8423 48.7161 100.837 90.058 
45.2304 102.879 94.8664 44.9322 102.459 94.5782 44.5953 102.008 94.3114 
44.281 101.445 94.1617 43.9967 100.841 94.0638 43.6962 100.231 93.9615 
43.5206 99.5747 94.048 43.5596 98.9708 94.3208 43.6691 98.4722 94.6258 
47.2388 106.716 101.491 47.6912 107.056 101.08 48.125 107.372 100.559 
48.6334 107.569 99.8783 49.2569 107.607 99.0973 49.8916 107.481 98.4249 
50.3897 107.152 97.9723 50.7213 106.652 97.6163 50.9533 106.147 97.2454 
46.0943 106.152 101.855 45.4349 105.787 101.863 44.7121 105.317 101.832 
43.9209 104.798 101.727 43.0985 104.31 101.584 42.2299 103.861 101.436 
41.4108 103.428 101.233 40.7791 102.983 100.97 40.2893 102.491 100.718 
47.3198 106.57 102.18 47.9351 106.707 102.565 48.6078 106.764 102.959 
49.3613 106.757 103.353 50.1679 106.69 103.746 50.9581 106.465 104.059 
51.6918 106.07 104.251 52.3292 105.619 104.404 52.8282 105.144 104.535 
46.5771 106.209 102.395 46.423 105.87 102.953 46.2668 105.417 103.458 
46.0126 104.979 103.979 45.7022 104.534 104.533 45.4293 104 104.965 
45.1764 103.423 105.278 44.938 102.858 105.567 44.7198 102.312 105.801 
52.5863 101.322 97.9127 52.8781 101.711 97.5859 53.0711 102.193 97.219 
53.1795 102.781 96.9064 53.1384 103.457 96.7383 52.8183 104.088 96.7083 
52.3633 104.567 96.7541 51.9303 104.975 96.8073 51.5213 105.365 96.8376 
52.8048 101.168 98.6705 53.3507 101.383 99.2038 53.8427 101.64 99.7921 
54.1312 102.011 100.515 54.1939 102.555 101.417 54.1888 103.166 102.375 
54.126 103.662 103.187 53.8841 104.021 103.777 53.5369 104.333 104.219 
51.9948 100.934 97.4617 51.6921 100.817 96.5938 51.3997 100.623 95.5502 
51.16 100.385 94.3986 50.976 100.166 93.2234 50.7932 100.044 92.1227 
50.5788 100.036 91.2399 50.2238 100.107 90.683 49.6908 100.229 90.399 
51.505 105.914 97.4207 51.9179 106.129 98.002 52.3279 106.302 98.6726 
52.6353 106.321 99.5163 52.8387 106.205 100.525 53.0177 106.009 101.573 
53.1329 105.706 102.499 53.1753 105.339 103.289 53.202 104.984 103.993 
50.9653 105.258 96.2453 50.7513 104.741 95.5507 50.5197 104.2 94.7425 
50.272 103.615 93.8313 49.9766 102.966 92.9192 49.7275 102.406 91.9676 
49.6586 101.976 90.9498 49.6604 101.498 90.2122 49.4847 100.924 90.049 
40.441 97.1351 102.177 39.7118 97.3961 102.157 39.1636 97.8323 102.051 
38.6902 98.3695 101.848 38.298 98.9774 101.612 38.2637 99.6922 101.385 
38.5695 100.436 101.145 38.98 101.042 100.93 39.4321 101.51 100.722 
41.0199 97.1525 102.746 41.0309 97.424 103.278 41.2232 97.8647 103.725 
41.4514 98.3204 104.206 41.7636 98.8072 104.7 42.2152 99.4086 105.154 
42.7519 100.045 105.54 43.3223 100.633 105.789 43.9173 101.204 105.896 
41.1317 97.0063 101.5 41.0758 96.9925 100.763 41.1268 97.0096 99.9288 
41.4124 97.1084 99.1061 41.8859 97.2555 98.3446 42.3937 97.3935 97.5841 
42.8667 97.5479 96.8488 43.2469 97.7097 96.1667 43.529 97.8713 95.5067 
39.8228 102.031 101.212 39.8864 102.056 101.981 40.1216 102.038 102.682 
40.5726 101.978 103.282 41.1752 101.936 103.839 41.8175 101.919 104.385 
42.5019 101.868 104.879 43.2465 101.796 105.282 43.9266 101.764 105.637 
39.7994 101.554 100.067 39.8299 101.135 99.6368 40.0119 100.757 99.1324 
40.3635 100.374 98.5436 40.8655 99.9438 97.9513 41.4504 99.5341 97.3402 
42.1157 99.1518 96.7216 42.7837 98.7643 96.1164 43.3201 98.3937 95.4841 
52.8237 104.557 105.017 52.2689 104.4 105.372 51.5563 104.193 105.67 
50.6853 104.009 105.94 49.6198 103.809 106.136 48.4624 103.461 106.214 
47.3031 103.007 106.234 46.1861 102.569 106.227 45.2384 102.158 106.136 
48.3845 100.09 90.4773 47.6899 99.7397 90.6735 46.9991 99.296 90.8951 
46.208 98.7716 91.1247 45.4327 98.286 91.3768 44.9454 98.0052 91.8976 
44.7045 97.9299 92.7116 44.4483 97.9419 93.5121 44.1077 97.9832 94.2075 
47.7378 97.363 95.8353 48.2127 97.779 96.0826 47.831 97.8297 96.7715 
48.6871 98.2368 96.3708 48.3291 98.2135 97.0922 47.9521 98.2318 97.7918 
49.1922 98.7917 96.7214 48.9015 98.6179 97.4595 48.4889 98.6185 98.2162 
48.1147 98.5859 99.0122 49.749 99.2887 97.1783 49.5565 99.0478 97.8995 
49.1774 98.9473 98.6932 48.755 98.9227 99.528 48.4549 98.7346 100.309 
50.3907 99.6565 97.7046 50.2285 99.434 98.3924 49.998 99.2151 99.1371 
49.6085 99.1268 99.9398 49.2961 98.9402 100.679 49.0524 98.6136 101.23 
51.124 100.009 98.1765 50.9444 99.7973 98.8229 50.799 99.5319 99.5161 
50.557 99.3119 100.249 50.2533 99.0995 100.944 49.9899 98.7668 101.491 
49.6656 98.436 101.962 51.8044 100.355 98.5046 51.7119 100.11 99.1119 
51.5568 99.881 99.7761 51.3858 99.6189 100.489 51.1432 99.35 101.196 
50.8672 99.0083 101.782 50.5444 98.6424 102.269 50.0941 98.4196 102.742 
47.8885 96.6378 94.5211 48.1929 96.5093 93.9382 48.349 97.1746 94.5614 
48.6173 96.4905 93.3597 48.6249 97.186 93.9627 48.7829 97.8027 94.7422 
49.104 96.6657 92.7785 49.0837 97.2743 93.408 49.1323 97.8938 94.1566 
49.2627 98.4703 95.0544 49.4419 97.1513 92.1677 49.6342 97.4417 92.7934 
49.643 97.9804 93.5874 49.7025 98.5123 94.4515 49.803 99.0138 95.456 
49.5899 97.8989 91.5866 50.0328 97.8333 92.0689 50.1233 98.139 92.9375 
50.1308 98.6233 93.8645 50.2127 99.0964 94.8743 50.3788 99.5101 96.0066 
49.6586 98.7402 91.1024 50.2381 98.5161 91.3927 50.4629 98.5412 92.2029 
50.4764 98.8895 93.255 50.5251 99.3505 94.3207 50.6908 99.7605 95.4884 
50.9471 100.063 96.6382 49.6918 99.534 90.7186 50.2903 99.3383 90.9384 
50.6181 99.2367 91.5782 50.7299 99.3658 92.6181 50.8031 99.6968 93.7538 
50.9429 100.064 94.9356 51.1801 100.359 96.1177 51.4789 100.548 97.1428 
49.9666 100.82 90.4112 50.0204 101.425 90.9017 50.3471 100.78 91.0231 
50.0381 101.952 91.8153 50.3777 101.435 91.7618 50.6548 100.784 91.8285 
50.2434 102.496 92.763 50.5501 102.016 92.6738 50.8157 101.45 92.6516 
50.9703 100.792 92.8223 50.5621 103.15 93.6622 50.8508 102.663 93.5891 
51.1254 102.093 93.5779 51.2618 101.451 93.7189 51.2755 100.849 94.0157 
50.8607 103.787 94.5856 51.1731 103.359 94.5127 51.4818 102.841 94.5032 
51.6603 102.157 94.6284 51.6772 101.499 94.8844 51.596 100.984 95.1928 
51.1219 104.338 95.4502 51.4854 103.934 95.383 51.8613 103.526 95.3391 
52.1493 102.907 95.3696 52.2202 102.18 95.557 52.1571 101.575 95.8535 
51.9762 101.133 96.2146 51.3491 104.881 96.1909 51.7456 104.459 96.1396 
52.174 104.056 96.0782 52.5863 103.537 96.0359 52.7828 102.838 96.1075 
52.7409 102.175 96.3564 52.5892 101.653 96.7253 52.3123 101.26 97.1244 
53.0959 101.59 98.4383 53.3233 102.085 98.1441 53.629 101.876 98.9809 
53.4451 102.702 97.8152 53.7913 102.527 98.6963 54.0924 102.266 99.558 
53.4802 103.399 97.5615 53.8234 103.323 98.424 54.1669 103.138 99.3134 
54.256 102.868 100.342 53.2908 104.097 97.4381 53.6883 104.079 98.259 
54.0407 104.018 99.1512 54.1963 103.845 100.206 54.1706 103.543 101.328 
52.8632 104.691 97.4131 53.3193 104.732 98.1829 53.7058 104.715 99.058 
53.9483 104.627 100.092 54.0212 104.386 101.204 54.0549 104.036 102.239 
[...]
POINT_DATA 1002
SCALARS Color_Map_Phi float
LOOKUP_TABLE default
6.28319 3.14159 6.28319 3.14159 4.71239 4.71239 1.5708 1.5708 3.69517 
5.72961 2.58802 0.553574 6.28319 6.28319 6.28319 6.28319 3.14159 3.14159 
3.14159 3.14159 3.14159 6.1053 5.8988 5.67687 5.45995 5.26596 5.10322 
4.97131 4.86569 4.78095 0.177881 0.384387 0.606312 0.823235 1.01722 1.17997 
1.31187 1.4175 1.50223 6.18928 6.10703 6.03531 5.97283 5.91832 5.87061 
5.82869 5.79168 5.75886 0.0939024 0.176153 0.247873 0.310351 0.364864 0.412573 
0.454497 0.491504 0.524326 3.31947 3.52598 3.7479 3.96483 4.15881 4.32156 
4.45346 4.55909 4.64383 2.96371 2.75721 2.53528 2.31836 2.12437 1.96162 
1.82972 1.72409 1.63936 3.2355 3.31775 3.38947 3.45194 3.50646 3.55417 
3.59609 3.6331 3.66592 3.04769 2.96544 2.89372 2.83124 2.77673 2.72902 
2.6871 2.65009 2.61727 6.28319 6.28319 6.28319 6.28319 3.14159 3.14159 
3.14159 3.14159 3.14159 6.1053 5.8988 5.67687 5.45995 5.26596 5.10322 
4.97131 4.86569 4.78095 0.177881 0.384387 0.606312 0.823235 1.01722 1.17997 
1.31187 1.4175 1.50223 6.18928 6.10703 6.03531 5.97283 5.91832 5.87061 
5.82869 5.79168 5.75886 0.0939024 0.176153 0.247873 0.310351 0.364864 0.412573 
0.454497 0.491504 0.524326 3.31947 3.52598 3.7479 3.96483 4.15881 4.32156 
4.45346 4.55909 4.64383 2.96371 2.75721 2.53528 2.31836 2.12437 1.96162 
1.82972 1.72409 1.63936 3.2355 3.31775 3.38947 3.45194 3.50646 3.55417 
3.59609 3.6331 3.66592 3.04769 2.96544 2.89372 2.83124 2.77673 2.72902 
2.6871 2.65009 2.61727 4.71239 4.71239 4.71239 4.71239 4.71239 4.71239 
4.71239 4.71239 4.71239 4.60879 4.49914 4.3857 4.27128 4.15881 4.05096 
3.94976 3.85646 3.77161 4.81599 4.92564 5.03907 5.1535 5.26596 5.37381 
5.47502 5.56831 5.65317 4.60879 4.49914 4.3857 4.27128 4.15881 4.05096 
3.94976 3.85646 3.77161 4.81599 4.92564 5.03907 5.1535 5.26596 5.37381 
5.47502 5.56831 5.65317 1.5708 1.5708 1.5708 1.5708 1.5708 1.5708 
1.5708 1.5708 1.5708 1.6744 1.78405 1.89748 2.01191 2.12437 2.23222 
2.33343 2.42672 2.51157 1.4672 1.35755 1.24411 1.12969 1.01722 0.909371 
0.808166 0.714871 0.63002 1.6744 1.78405 1.89748 2.01191 2.12437 2.23222 
2.33343 2.42672 2.51157 1.4672 1.35755 1.24411 1.12969 1.01722 0.909371 
0.808166 0.714871 0.63002 3.60077 3.49669 3.38395 3.26458 3.14159 3.01861 
2.89924 2.78649 2.68241 5.82401 5.92808 6.04083 6.1602 6.28319 0.122983 
0.242354 0.355101 0.459179 6.05603 5.78856 5.97021 5.51259 5.60297 5.78856 
5.26596 5.26596 5.26596 5.26596 5.06749 5.0121 4.91556 4.71239 4.15881 
4.91556 4.83537 4.71239 4.50922 4.15881 3.63622 4.80045 4.71239 4.58941 
4.41268 4.15881 3.82181 3.45456 4.71239 4.62433 4.50922 4.35729 4.15881 
3.91219 3.63622 3.36875 6.01742 5.94343 5.82633 5.88092 5.76745 5.62798 
5.8278 5.71897 5.58911 5.43724 5.78235 5.67854 5.55757 5.41926 5.26596 
5.74316 5.64441 5.5315 5.40467 5.26596 5.11955 5.70914 5.61528 5.50962 
5.3926 5.26596 5.13292 4.99789 5.67937 5.59016 5.49102 5.38246 5.26596 
5.14407 5.02016 4.89798 5.56831 5.47502 5.47502 5.37381 5.37381 5.37381 
5.26596 5.26596 5.26596 5.26596 5.1535 5.1535 5.1535 5.1535 5.1535 
5.03907 5.03907 5.03907 5.03907 5.03907 5.03907 4.92564 4.92564 4.92564 
4.92564 4.92564 4.92564 4.92564 4.81599 4.81599 4.81599 4.81599 4.81599 
4.81599 4.81599 4.81599 4.60879 4.60879 4.49914 4.60879 4.49914 4.3857 
4.60879 4.49914 4.3857 4.27128 4.60879 4.49914 4.3857 4.27128 4.15881 
4.60879 4.49914 4.3857 4.27128 4.15881 4.05096 4.60879 4.49914 4.3857 
4.27128 4.15881 4.05096 3.94976 4.60879 4.49914 4.3857 4.27128 4.15881 
4.05096 3.94976 3.85646 4.5268 4.40462 4.42689 4.28071 4.29185 4.30523 
4.15881 4.15881 4.15881 4.15881 4.04232 4.03217 4.02011 4.00552 3.98753 
3.93376 3.91515 3.89328 3.86721 3.83566 3.7968 3.83461 3.8095 3.78037 
3.74624 3.70581 3.65733 3.59845 3.7454 3.71564 3.68161 3.64243 3.59698 
3.54386 3.48135 3.40735 3.56428 3.45246 3.52338 3.33203 3.40312 3.47739 
3.20576 3.27463 3.34802 3.42551 3.07742 3.14159 3.21128 3.28647 3.36688 
2.95116 3.00855 3.0719 3.14159 3.21784 3.3006 2.83072 2.88006 2.93517 
2.99672 3.06535 3.14159 3.22575 2.7189 2.7598 2.8058 2.85768 2.9163 
2.98259 3.05743 3.14159 3.56428 3.52338 3.45246 3.47739 3.40312 3.33203 
3.42551 3.34802 3.27463 3.20576 3.36688 3.28647 3.21128 3.14159 3.07742 
3.3006 3.21784 3.14159 3.0719 3.00855 2.95116 3.22575 3.14159 3.06535 
2.99672 2.93517 2.88006 2.83072 3.14159 3.05743 2.98259 2.9163 2.85768 
2.8058 2.7598 2.7189 4.5268 4.42689 4.40462 4.30523 4.29185 4.28071 
4.15881 4.15881 4.15881 4.15881 3.98753 4.00552 4.02011 4.03217 4.04232 
3.7968 3.83566 3.86721 3.89328 3.91515 3.93376 3.59845 3.65733 3.70581 
3.74624 3.78037 3.8095 3.83461 3.40735 3.48135 3.54386 3.59698 3.64243 
3.68161 3.71564 3.7454 4.71239 4.80045 4.62433 4.91556 4.71239 4.50922 
5.06749 4.83537 4.58941 4.35729 5.26596 5.0121 4.71239 4.41268 4.15881 
5.51259 5.26596 4.91556 4.50922 4.15881 3.91219 5.78856 5.60297 5.26596 
4.71239 4.15881 3.82181 3.63622 6.05603 5.97021 5.78856 5.26596 4.15881 
3.63622 3.45456 3.36875 0.227158 0.494626 0.312971 0.770593 0.680215 0.494626 
1.01722 1.01722 1.01722 1.01722 1.2157 1.27109 1.36763 1.5708 2.12437 
1.36763 1.44781 1.5708 1.77397 2.12437 2.64697 1.48273 1.5708 1.69378 
1.8705 2.12437 2.46138 2.82862 1.5708 1.65886 1.77397 1.9259 2.12437 
2.371 2.64697 2.91443 1.75639 1.87857 1.8563 2.00248 1.99133 1.97796 
2.12437 2.12437 2.12437 2.12437 2.24087 2.25101 2.26308 2.27767 2.29565 
2.34943 2.36803 2.38991 2.41597 2.44752 2.48639 2.44857 2.47368 2.50281 
2.53694 2.57738 2.62586 2.68474 2.53778 2.56754 2.60157 2.64076 2.68621 
2.73933 2.80184 2.87583 1.6744 1.6744 1.78405 1.6744 1.78405 1.89748 
1.6744 1.78405 1.89748 2.01191 1.6744 1.78405 1.89748 2.01191 2.12437 
1.6744 1.78405 1.89748 2.01191 2.12437 2.23222 1.6744 1.78405 1.89748 
2.01191 2.12437 2.23222 2.33343 1.6744 1.78405 1.89748 2.01191 2.12437 
2.23222 2.33343 2.42672 1.4672 1.35755 1.4672 1.24411 1.35755 1.4672 
1.12969 1.24411 1.35755 1.4672 1.01722 1.12969 1.24411 1.35755 1.4672 
0.909371 1.01722 1.12969 1.24411 1.35755 1.4672 0.808166 0.909371 1.01722 
1.12969 1.24411 1.35755 1.4672 0.714871 0.808166 0.909371 1.01722 1.12969 
1.24411 1.35755 1.4672 0.603812 0.57405 0.693022 0.540021 0.667908 0.792164 
0.500837 0.638778 0.773562 0.900726 0.455383 0.604649 0.751687 0.890581 1.01722 
0.402264 0.564217 0.725619 0.878514 1.01722 1.13912 0.339753 0.515737 0.694072 
0.863926 1.01722 1.15026 1.26302 0.265762 0.456853 0.655207 0.845941 1.01722 
1.16363 1.28529 1.38521 0.227158 0.312971 0.494626 0.494626 0.680215 0.770593 
1.01722 1.01722 1.01722 1.01722 2.12437 1.5708 1.36763 1.27109 1.2157 
2.64697 2.12437 1.77397 1.5708 1.44781 1.36763 2.82862 2.46138 2.12437 
1.8705 1.69378 1.5708 1.48273 2.91443 2.64697 2.371 2.12437 1.9259 
1.77397 1.65886 1.5708 1.75639 1.8563 1.87857 1.97796 1.99133 2.00248 
2.12437 2.12437 2.12437 2.12437 2.29565 2.27767 2.26308 2.25101 2.24087 
2.48639 2.44752 2.41597 2.38991 2.36803 2.34943 2.68474 2.62586 2.57738 
2.53694 2.50281 2.47368 2.44857 2.87583 2.80184 2.73933 2.68621 2.64076 
2.60157 2.56754 2.53778 5.86049 5.90139 5.97231 5.94739 6.02165 6.09275 
5.99927 6.07676 6.15015 6.21902 6.0579 6.13831 6.2135 0 0.0641696 
6.12418 6.20694 6.28319 0.069689 0.13304 0.190437 6.19903 0 0.0762451 
0.144876 0.206423 0.261531 0.310872 0 0.0841597 0.159004 0.225289 0.283913 
0.335793 0.381792 0.422692 5.86049 5.97231 5.90139 6.09275 6.02165 5.94739 
6.21902 6.15015 6.07676 5.99927 0.0641696 0 6.2135 6.13831 6.0579 
0.190437 0.13304 0.069689 6.28319 6.20694 6.12418 0.310872 0.261531 0.206423 
0.144876 0.0762451 6.28319 6.19903 0.422692 0.381792 0.335793 0.283913 0.225289 
0.159004 0.0841597 0 5.67937 5.70914 5.59016 5.74316 5.61528 5.49102 
5.78235 5.64441 5.50962 5.38246 5.8278 5.67854 5.5315 5.3926 5.26596 
5.88092 5.71897 5.55757 5.40467 5.26596 5.14407 5.94343 5.76745 5.58911 
5.41926 5.26596 5.13292 5.02016 6.01742 5.82633 5.62798 5.43724 5.26596 
5.11955 4.99789 4.89798 1.38521 1.28529 1.26302 1.16363 1.15026 1.13912 
1.01722 1.01722 1.01722 1.01722 0.845941 0.863926 0.878514 0.890581 0.900726 
0.655207 0.694072 0.725619 0.751687 0.773562 0.792164 0.456853 0.515737 0.564217 
0.604649 0.638778 0.667908 0.693022 0.265762 0.339753 0.402264 0.455383 0.500837 
0.540021 0.57405 0.603812 
