# vtk DataFile Version 4.1
vtk output
ASCII
DATASET POLYDATA
POINTS 1002 float
46.5623 95.9199 97.7903 48.7544 99.6411 108.005 43.1317 103.796 93.0764 
45.1793 107.356 102.041 53.0202 101.513 100.184 51.7813 105.624 96.9781 
39.2184 97.5001 105.516 36.355 103.781 101.225 54.4574 106.388 106.208 
48.7357 98.4557 91.3219 42.7777 103.973 108.786 41.392 97.445 95.1881 
46.6264 96.6672 98.6641 46.6617 97.4505 99.5963 46.6745 98.1388 100.656 
46.7264 98.6722 101.843 46.8853 99.0593 103.087 47.1593 99.301 104.366 
47.5178 99.3974 105.583 47.9453 99.4145 106.549 48.3876 99.4645 107.325 
46.9339 96.3432 97.7569 47.3658 96.9076 97.774 47.8313 97.603 97.8397 
48.3731 98.3474 97.9962 49.0318 99.0734 98.2709 49.7563 99.7747 98.6225 
50.5398 100.369 99.0162 51.4155 100.819 99.4604 52.2782 101.185 99.8783 
46.2552 96.0211 98.4361 45.7766 96.2729 99.1841 45.0557 96.6886 99.9463 
44.2535 97.0646 100.773 43.3519 97.3468 101.721 42.2865 97.5607 102.714 
41.2775 97.5168 103.67 40.4925 97.2543 104.523 39.8292 97.2187 105.14 
46.7365 95.3992 96.9381 46.9669 94.7542 96.1417 47.232 94.1593 95.4636 
47.5584 93.9386 94.8104 47.982 94.2102 94.0842 48.3891 94.8034 93.3537 
48.6081 95.6322 92.7248 48.6671 96.6187 92.183 48.6894 97.5939 91.7232 
46.2926 95.2658 97.3227 45.9167 94.5924 96.937 45.3632 94.0233 96.6661 
44.6977 93.8705 96.388 44.0984 94.2095 96.0065 43.5613 94.811 95.5943 
42.9976 95.5145 95.2691 42.4221 96.2481 95.1069 41.8761 96.889 95.11 
49.3839 99.8763 107.436 50.1513 100.021 106.797 50.87 100.213 106.101 
51.3774 100.565 105.318 51.7395 100.966 104.49 52.0626 101.306 103.661 
52.3216 101.568 102.742 52.583 101.643 101.752 52.8623 101.544 100.886 
48.0024 99.1906 108.11 47.2373 98.6809 108.132 46.385 98.1785 108.056 
45.3889 97.86 107.828 44.28 97.8933 107.436 43.1253 98.0172 106.984 
41.9875 97.8762 106.614 40.9692 97.633 106.307 40.0679 97.5382 105.942 
49.4432 100.09 108.255 50.169 100.64 108.381 50.9557 101.257 108.379 
51.8888 101.884 108.402 52.8078 102.583 108.382 53.4838 103.456 108.139 
53.9209 104.375 107.713 54.2128 105.146 107.209 54.3894 105.782 106.693 
48.5675 99.6653 108.717 48.2157 99.8904 109.327 47.6794 100.352 109.745 
47.0053 100.945 110.074 46.2022 101.542 110.28 45.3899 102.138 110.197 
44.639 102.752 109.923 43.9163 103.31 109.609 43.2861 103.698 109.223 
43.1891 104.27 93.7707 43.2686 104.753 94.5807 43.3841 105.22 95.5081 
43.5556 105.675 96.5399 43.7383 106.126 97.5473 43.9369 106.567 98.4828 
44.2012 106.94 99.4193 44.5171 107.187 100.368 44.8421 107.318 101.261 
43.762 104.025 92.8967 44.4878 104.257 92.8155 45.3387 104.509 92.8668 
46.306 104.744 93.1567 47.2927 104.909 93.7175 48.2194 105.051 94.4093 
49.1388 105.22 95.1155 50.0861 105.392 95.812 50.979 105.534 96.4406 
42.5934 103.825 93.7793 42.0507 103.829 94.6439 41.4213 103.823 95.5966 
40.6866 103.818 96.5535 39.8167 103.881 97.4057 38.8458 103.978 98.1785 
37.987 103.976 98.9916 37.3162 103.91 99.7958 36.7608 103.866 100.506 
43.479 103.468 92.2701 43.8794 103.101 91.4394 44.2451 102.745 90.5355 
44.7221 102.35 89.7625 45.5478 101.833 89.5879 46.4437 101.202 89.9117 
47.1481 100.494 90.3023 47.7578 99.7708 90.655 48.3042 99.0949 91.0027 
42.7324 103.334 92.848 42.32 102.809 92.6873 41.9018 102.242 92.5906 
41.5499 101.559 92.6409 41.3055 100.697 92.9144 41.109 99.7502 93.2727 
40.9729 98.9251 93.6482 41.0067 98.2981 94.1303 41.1901 97.8173 94.6865 
45.8667 107.531 101.542 46.6361 107.618 100.939 47.5555 107.577 100.253 
48.4875 107.51 99.6147 49.3457 107.435 99.0622 50.1197 107.237 98.5435 
50.7347 106.896 98.0755 51.1784 106.484 97.6833 51.5194 106.048 97.3254 
44.1858 107.196 102.074 43.0549 107.043 102.09 41.9132 106.852 102.071 
40.829 106.571 102.017 39.7934 106.196 101.941 38.8142 105.781 101.859 
37.9285 105.377 101.761 37.2029 104.921 101.601 36.6988 104.371 101.406 
46.0365 107.414 102.48 47.0708 107.398 102.946 48.188 107.435 103.47 
49.2231 107.6 104.052 50.2761 107.693 104.583 51.4582 107.632 105.009 
52.56 107.534 105.415 53.3915 107.357 105.813 54.0064 106.942 106.078 
44.9434 107.229 102.814 44.6564 107.061 103.647 44.3247 106.832 104.466 
43.9888 106.519 105.214 43.6691 106.135 105.95 43.4041 105.692 106.639 
43.2255 105.221 107.219 43.0805 104.779 107.791 42.9299 104.364 108.34 
53.4559 101.795 99.8645 53.9045 102.098 99.3996 54.3728 102.342 98.7321 
54.714 102.716 97.9681 54.7006 103.44 97.5029 54.3471 104.213 97.3493 
53.7625 104.759 97.2794 53.0848 105.112 97.1839 52.4113 105.388 97.0779 
53.5817 101.888 100.834 54.0997 102.389 101.596 54.7326 102.859 102.458 
55.5284 103.113 103.261 56.2232 103.352 104.049 56.4548 104.012 104.907 
56.1512 104.888 105.436 55.635 105.575 105.683 55.0687 106.039 105.926 
52.5966 101.379 99.2633 52.0976 101.164 98.1162 51.7309 100.673 96.9501 
51.4501 99.9895 95.8778 51.0331 99.3701 94.743 50.6552 98.8012 93.6341 
50.4468 98.2902 92.6452 50.1172 98.0713 91.8586 49.482 98.1957 91.4314 
52.4121 105.948 97.7321 53.0683 106.297 98.5675 53.7296 106.668 99.4719 
54.3423 107.021 100.434 54.8567 107.288 101.469 55.1627 107.357 102.62 
55.2359 107.264 103.783 55.1228 107.084 104.765 54.8535 106.792 105.543 
51.4998 105.147 96.2956 51.1442 104.591 95.5272 50.7695 103.965 94.6527 
50.4459 103.33 93.7147 50.0954 102.576 92.8399 49.8321 101.686 92.0085 
49.7561 100.759 91.2944 49.6486 99.8826 90.9134 49.2847 99.1069 90.9574 
38.3268 97.7226 105.413 37.487 97.97 105.351 36.7727 98.3741 105.213 
36.1719 99.0177 104.887 35.8172 99.8177 104.377 35.8481 100.731 103.745 
35.9286 101.716 103.031 35.9328 102.573 102.321 36.0637 103.256 101.697 
39.1773 97.9612 106.046 39.1825 98.5291 106.524 39.3221 99.234 106.995 
39.5711 100.012 107.483 39.8449 100.708 108.003 40.2175 101.386 108.51 
40.7282 102.165 108.83 41.336 102.94 108.941 42.0428 103.543 108.915 
38.7722 97.2432 104.775 38.4578 97.0978 103.904 38.4271 97.2426 102.97 
38.6818 97.5721 101.838 39.1096 97.6521 100.53 39.6961 97.59 99.2526 
40.2911 97.5452 98.0678 40.7539 97.4876 96.9859 41.117 97.4359 96.0346 
36.3008 104.003 102.204 36.4072 104.16 103.372 36.6531 104.275 104.574 
37.0058 104.377 105.661 37.5817 104.426 106.615 38.4112 104.404 107.369 
39.4612 104.31 107.851 40.6454 104.152 108.166 41.7898 104.027 108.461 
36.2988 103.214 100.588 36.3555 102.527 99.9348 36.5812 101.748 99.282 
37.0124 100.925 98.6805 37.5596 100.08 98.1068 38.3186 99.4101 97.5814 
39.2838 98.9876 97.0883 40.1379 98.5513 96.4949 40.7979 97.9976 95.8215 
53.743 106.29 106.737 52.8475 106.142 107.152 51.7283 105.901 107.534 
50.426 105.538 107.94 49.0629 105.182 108.269 47.658 104.884 108.52 
46.2576 104.613 108.726 44.9731 104.382 108.845 43.8251 104.178 108.855 
47.9398 98.1809 91.5363 47.122 97.8127 91.688 46.2604 97.3971 91.8089 
45.3595 97.0468 92.0359 44.432 96.7636 92.2307 43.3844 96.4494 92.2666 
42.4923 96.3116 92.5639 42.0788 96.6049 93.3432 41.8045 97.0722 94.2883 
47.0145 97.1615 98.6467 47.4876 97.7382 98.6957 47.1293 97.9204 99.663 
48.0341 98.3947 98.8255 47.7204 98.4248 99.8264 47.3073 98.5291 100.862 
48.7099 99.0637 99.0806 48.4037 98.9973 100.063 48.0818 98.9351 101.151 
47.5491 98.9914 102.137 49.5075 99.6861 99.4663 49.2317 99.57 100.381 
48.9098 99.4186 101.45 48.4626 99.3392 102.476 47.8238 99.3353 103.395 
50.3258 100.243 99.8827 50.1569 100.05 100.771 49.8683 99.8826 101.745 
49.3894 99.7637 102.782 48.7884 99.6765 103.72 48.1362 99.5653 104.652 
51.1787 100.752 100.274 51.0228 100.558 101.159 50.8312 100.342 102.09 
50.3781 100.218 103.081 49.7716 100.099 104.024 49.1686 99.9058 104.906 
48.5358 99.6791 105.785 52.0667 101.194 100.627 51.8279 101.145 101.496 
51.6172 100.959 102.459 51.2731 100.753 103.408 50.783 100.538 104.308 
50.2704 100.251 105.143 49.6786 99.9714 105.938 48.9992 99.7363 106.676 
47.1688 95.8685 96.9031 47.4139 95.4117 96.0934 47.6334 96.5389 96.944 
47.6457 95.1657 95.3504 47.8869 96.2684 96.1265 48.1229 97.3708 97.0484 
48.0173 95.1343 94.6133 48.1824 96.1731 95.3414 48.4613 97.2066 96.2608 
48.7027 98.2303 97.2404 48.5397 95.3378 93.8626 48.6034 96.2325 94.593 
48.8538 97.173 95.5035 49.1141 98.1412 96.51 49.3757 99.0704 97.5165 
49.0096 95.8139 93.1603 49.1033 96.4703 93.8705 49.2319 97.314 94.7707 
49.5499 98.1405 95.8115 49.8208 99.0403 96.8278 50.122 99.8507 97.8524 
49.3295 96.5054 92.4818 49.6079 96.8649 93.1248 49.6611 97.5603 94.0209 
49.9146 98.2927 95.0871 50.3104 99.0379 96.1987 50.5969 99.8522 97.1959 
50.9515 100.473 98.2845 49.4698 97.3241 91.8812 50.0022 97.3669 92.396 
50.165 97.8285 93.2523 50.3014 98.5069 94.3159 50.7077 99.1639 95.4906 
51.0668 99.8895 96.5834 51.3628 100.565 97.6372 51.7996 100.971 98.8062 
49.9168 98.9513 91.3355 50.0476 99.9353 91.6703 50.3374 99.0218 92.1026 
50.1697 101.002 92.2793 50.4717 100.222 92.6276 50.6893 99.3759 93.0585 
50.5171 101.981 93.0059 50.8894 101.326 93.2146 51.1499 100.53 93.568 
51.2201 99.7848 94.0833 50.9422 102.829 93.8211 51.4245 102.231 93.9405 
51.7816 101.49 94.1592 51.9154 100.723 94.5948 51.773 100.217 95.214 
51.3256 103.575 94.7036 51.8811 103.092 94.8027 52.3304 102.45 94.9468 
52.5553 101.663 95.254 52.4909 101.061 95.7482 52.1539 100.815 96.3589 
51.735 104.27 95.5691 52.3629 103.887 95.6517 52.917 103.376 95.7634 
53.2687 102.647 95.9613 53.2947 101.934 96.3668 53.0001 101.536 96.9496 
52.5256 101.381 97.5809 52.1277 104.885 96.3601 52.8007 104.563 96.4476 
53.4462 104.139 96.5409 53.9548 103.489 96.6166 54.1708 102.686 96.8827 
53.9827 102.127 97.4912 53.514 101.883 98.2237 53.0163 101.666 98.828 
54.0678 102.23 100.525 54.5232 102.598 100.08 54.6292 102.802 101.28 
54.8948 102.962 99.4348 55.0819 103.25 100.851 55.296 103.311 102.09 
55.0917 103.525 98.7675 55.4004 103.769 100.266 55.7556 103.859 101.548 
56.0315 103.676 102.779 54.9646 104.327 98.3479 55.4858 104.475 99.6298 
55.9827 104.545 100.895 56.3222 104.496 102.139 56.482 104.306 103.597 
54.4924 105.016 98.1341 55.1956 105.274 99.1769 55.8298 105.379 100.332 
56.2684 105.41 101.553 56.4514 105.405 102.985 56.434 105.208 104.441 
[...]
POINT_DATA 1002
SCALARS Color_Map_Phi float
LOOKUP_TABLE default
6.28319 3.14159 6.28319 3.14159 4.71239 4.71239 1.5708 1.5708 3.69517 
5.72961 2.58802 0.553574 6.28319 6.28319 6.28319 6.28319 3.14159 3.14159 
3.14159 3.14159 3.14159 6.1053 5.8988 5.67687 5.45995 5.26596 5.10322 
4.97131 4.86569 4.78095 0.177881 0.384387 0.606312 0.823235 1.01722 1.17997 
1.31187 1.4175 1.50223 6.18928 6.10703 6.03531 5.97283 5.91832 5.87061 
5.82869 5.79168 5.75886 0.0939024 0.176153 0.247873 0.310351 0.364864 0.412573 
0.454497 0.491504 0.524326 3.31947 3.52598 3.7479 3.96483 4.15881 4.32156 
4.45346 4.55909 4.64383 2.96371 2.75721 2.53528 2.31836 2.12437 1.96162 
1.82972 1.72409 1.63936 3.2355 3.31775 3.38947 3.45194 3.50646 3.55417 
3.59609 3.6331 3.66592 3.04769 2.96544 2.89372 2.83124 2.77673 2.72902 
2.6871 2.65009 2.61727 6.28319 6.28319 6.28319 6.28319 3.14159 3.14159 
3.14159 3.14159 3.14159 6.1053 5.8988 5.67687 5.45995 5.26596 5.10322 
4.97131 4.86569 4.78095 0.177881 0.384387 0.606312 0.823235 1.01722 1.17997 
1.31187 1.4175 1.50223 6.18928 6.10703 6.03531 5.97283 5.91832 5.87061 
5.82869 5.79168 5.75886 0.0939024 0.176153 0.247873 0.310351 0.364864 0.412573 
0.454497 0.491504 0.524326 3.31947 3.52598 3.7479 3.96483 4.15881 4.32156 
4.45346 4.55909 4.64383 2.96371 2.75721 2.53528 2.31836 2.12437 1.96162 
1.82972 1.72409 1.63936 3.2355 3.31775 3.38947 3.45194 3.50646 3.55417 
3.59609 3.6331 3.66592 3.04769 2.96544 2.89372 2.83124 2.77673 2.72902 
2.6871 2.65009 2.61727 4.71239 4.71239 4.71239 4.71239 4.71239 4.71239 
4.71239 4.71239 4.71239 4.60879 4.49914 4.3857 4.27128 4.15881 4.05096 
3.94976 3.85646 3.77161 4.81599 4.92564 5.03907 5.1535 5.26596 5.37381 
5.47502 5.56831 5.65317 4.60879 4.49914 4.3857 4.27128 4.15881 4.05096 
3.94976 3.85646 3.77161 4.81599 4.92564 5.03907 5.1535 5.26596 5.37381 
5.47502 5.56831 5.65317 1.5708 1.5708 1.5708 1.5708 1.5708 1.5708 
1.5708 1.5708 1.5708 1.6744 1.78405 1.89748 2.01191 2.12437 2.23222 
2.33343 2.42672 2.51157 1.4672 1.35755 1.24411 1.12969 1.01722 0.909371 
0.808166 0.714871 0.63002 1.6744 1.78405 1.89748 2.01191 2.12437 2.23222 
2.33343 2.42672 2.51157 1.4672 1.35755 1.24411 1.12969 1.01722 0.909371 
0.808166 0.714871 0.63002 3.60077 3.49669 3.38395 3.26458 3.14159 3.01861 
2.89924 2.78649 2.68241 5.82401 5.92808 6.04083 6.1602 6.28319 0.122983 
0.242354 0.355101 0.459179 6.05603 5.78856 5.97021 5.51259 5.60297 5.78856 
5.26596 5.26596 5.26596 5.26596 5.06749 5.0121 4.91556 4.71239 4.15881 
4.91556 4.83537 4.71239 4.50922 4.15881 3.63622 4.80045 4.71239 4.58941 
4.41268 4.15881 3.82181 3.45456 4.71239 4.62433 4.50922 4.35729 4.15881 
3.91219 3.63622 3.36875 6.01742 5.94343 5.82633 5.88092 5.76745 5.62798 
5.8278 5.71897 5.58911 5.43724 5.78235 5.67854 5.55757 5.41926 5.26596 
5.74316 5.64441 5.5315 5.40467 5.26596 5.11955 5.70914 5.61528 5.50962 
5.3926 5.26596 5.13292 4.99789 5.67937 5.59016 5.49102 5.38246 5.26596 
5.14407 5.02016 4.89798 5.56831 5.47502 5.47502 5.37381 5.37381 5.37381 
5.26596 5.26596 5.26596 5.26596 5.1535 5.1535 5.1535 5.1535 5.1535 
5.03907 5.03907 5.03907 5.03907 5.03907 5.03907 4.92564 4.92564 4.92564 
4.92564 4.92564 4.92564 4.92564 4.81599 4.81599 4.81599 4.81599 4.81599 
4.81599 4.81599 4.81599 4.60879 4.60879 4.49914 4.60879 4.49914 4.3857 
4.60879 4.49914 4.3857 4.27128 4.60879 4.49914 4.3857 4.27128 4.15881 
4.60879 4.49914 4.3857 4.27128 4.15881 4.05096 4.60879 4.49914 4.3857 
4.27128 4.15881 4.05096 3.94976 4.60879 4.49914 4.3857 4.27128 4.15881 
4.05096 3.94976 3.85646 4.5268 4.40462 4.42689 4.28071 4.29185 4.30523 
4.15881 4.15881 4.15881 4.15881 4.04232 4.03217 4.02011 4.00552 3.98753 
3.93376 3.91515 3.89328 3.86721 3.83566 3.7968 3.83461 3.8095 3.78037 
3.74624 3.70581 3.65733 3.59845 3.7454 3.71564 3.68161 3.64243 3.59698 
3.54386 3.48135 3.40735 3.56428 3.45246 3.52338 3.33203 3.40312 3.47739 
3.20576 3.27463 3.34802 3.42551 3.07742 3.14159 3.21128 3.28647 3.36688 
2.95116 3.00855 3.0719 3.14159 3.21784 3.3006 2.83072 2.88006 2.93517 
2.99672 3.06535 3.14159 3.22575 2.7189 2.7598 2.8058 2.85768 2.9163 
2.98259 3.05743 3.14159 3.56428 3.52338 3.45246 3.47739 3.40312 3.33203 
3.42551 3.34802 3.27463 3.20576 3.36688 3.28647 3.21128 3.14159 3.07742 
3.3006 3.21784 3.14159 3.0719 3.00855 2.95116 3.22575 3.14159 3.06535 
2.99672 2.93517 2.88006 2.83072 3.14159 3.05743 2.98259 2.9163 2.85768 
2.8058 2.7598 2.7189 4.5268 4.42689 4.40462 4.30523 4.29185 4.28071 
4.15881 4.15881 4.15881 4.15881 3.98753 4.00552 4.02011 4.03217 4.04232 
3.7968 3.83566 3.86721 3.89328 3.91515 3.93376 3.59845 3.65733 3.70581 
3.74624 3.78037 3.8095 3.83461 3.40735 3.48135 3.54386 3.59698 3.64243 
3.68161 3.71564 3.7454 4.71239 4.80045 4.62433 4.91556 4.71239 4.50922 
5.06749 4.83537 4.58941 4.35729 5.26596 5.0121 4.71239 4.41268 4.15881 
5.51259 5.26596 4.91556 4.50922 4.15881 3.91219 5.78856 5.60297 5.26596 
4.71239 4.15881 3.82181 3.63622 6.05603 5.97021 5.78856 5.26596 4.15881 
3.63622 3.45456 3.36875 0.227158 0.494626 0.312971 0.770593 0.680215 0.494626 
1.01722 1.01722 1.01722 1.01722 1.2157 1.27109 1.36763 1.5708 2.12437 
1.36763 1.44781 1.5708 1.77397 2.12437 2.64697 1.48273 1.5708 1.69378 
1.8705 2.12437 2.46138 2.82862 1.5708 1.65886 1.77397 1.9259 2.12437 
2.371 2.64697 2.91443 1.75639 1.87857 1.8563 2.00248 1.99133 1.97796 
2.12437 2.12437 2.12437 2.12437 2.24087 2.25101 2.26308 2.27767 2.29565 
2.34943 2.36803 2.38991 2.41597 2.44752 2.48639 2.44857 2.47368 2.50281 
2.53694 2.57738 2.62586 2.68474 2.53778 2.56754 2.60157 2.64076 2.68621 
2.73933 2.80184 2.87583 1.6744 1.6744 1.78405 1.6744 1.78405 1.89748 
1.6744 1.78405 1.89748 2.01191 1.6744 1.78405 1.89748 2.01191 2.12437 
1.6744 1.78405 1.89748 2.01191 2.12437 2.23222 1.6744 1.78405 1.89748 
2.01191 2.12437 2.23222 2.33343 1.6744 1.78405 1.89748 2.01191 2.12437 
2.23222 2.33343 2.42672 1.4672 1.35755 1.4672 1.24411 1.35755 1.4672 
1.12969 1.24411 1.35755 1.4672 1.01722 1.12969 1.24411 1.35755 1.4672 
0.909371 1.01722 1.12969 1.24411 1.35755 1.4672 0.808166 0.909371 1.01722 
1.12969 1.24411 1.35755 1.4672 0.714871 0.808166 0.909371 1.01722 1.12969 
1.24411 1.35755 1.4672 0.603812 0.57405 0.693022 0.540021 0.667908 0.792164 
0.500837 0.638778 0.773562 0.900726 0.455383 0.604649 0.751687 0.890581 1.01722 
0.402264 0.564217 0.725619 0.878514 1.01722 1.13912 0.339753 0.515737 0.694072 
0.863926 1.01722 1.15026 1.26302 0.265762 0.456853 0.655207 0.845941 1.01722 
1.16363 1.28529 1.38521 0.227158 0.312971 0.494626 0.494626 0.680215 0.770593 
1.01722 1.01722 1.01722 1.01722 2.12437 1.5708 1.36763 1.27109 1.2157 
2.64697 2.12437 1.77397 1.5708 1.44781 1.36763 2.82862 2.46138 2.12437 
1.8705 1.69378 1.5708 1.48273 2.91443 2.64697 2.371 2.12437 1.9259 
1.77397 1.65886 1.5708 1.75639 1.8563 1.87857 1.97796 1.99133 2.00248 
2.12437 2.12437 2.12437 2.12437 2.29565 2.27767 2.26308 2.25101 2.24087 
2.48639 2.44752 2.41597 2.38991 2.36803 2.34943 2.68474 2.62586 2.57738 
2.53694 2.50281 2.47368 2.44857 2.87583 2.80184 2.73933 2.68621 2.64076 
2.60157 2.56754 2.53778 5.86049 5.90139 5.97231 5.94739 6.02165 6.09275 
5.99927 6.07676 6.15015 6.21902 6.0579 6.13831 6.2135 0 0.0641696 
6.12418 6.20694 6.28319 0.069689 0.13304 0.190437 6.19903 0 0.0762451 
0.144876 0.206423 0.261531 0.310872 0 0.0841597 0.159004 0.225289 0.283913 
0.335793 0.381792 0.422692 5.86049 5.97231 5.90139 6.09275 6.02165 5.94739 
6.21902 6.15015 6.07676 5.99927 0.0641696 0 6.2135 6.13831 6.0579 
0.190437 0.13304 0.069689 6.28319 6.20694 6.12418 0.310872 0.261531 0.206423 
0.144876 0.0762451 6.28319 6.19903 0.422692 0.381792 0.335793 0.283913 0.225289 
0.159004 0.0841597 0 5.67937 5.70914 5.59016 5.74316 5.61528 5.49102 
5.78235 5.64441 5.50962 5.38246 5.8278 5.67854 5.5315 5.3926 5.26596 
5.88092 5.71897 5.55757 5.40467 5.26596 5.14407 5.94343 5.76745 5.58911 
5.41926 5.26596 5.13292 5.02016 6.01742 5.82633 5.62798 5.43724 5.26596 
5.11955 4.99789 4.89798 1.38521 1.28529 1.26302 1.16363 1.15026 1.13912 
1.01722 1.01722 1.01722 1.01722 0.845941 0.863926 0.878514 0.890581 0.900726 
0.655207 0.694072 0.725619 0.751687 0.773562 0.792164 0.456853 0.515737 0.564217 
0.604649 0.638778 0.667908 0.693022 0.265762 0.339753 0.402264 0.455383 0.500837 
0.540021 0.57405 0.603812 
