# vtk DataFile Version 4.1
vtk output
ASCII
DATASET POLYDATA
POINTS 1002 float
46.6464 94.3685 96.0113 49.2305 98.5615 105.732 42.3807 104.174 92.5268 
43.9156 106.651 102.59 52.4573 100.847 98.9737 49.9439 105.269 96.7734 
39.299 95.6224 103.721 37.0963 101.86 101.262 53.7053 104.577 105.931 
47.9489 100.114 90.512 42.7128 101.999 107.513 41.1193 97.9488 94.6302 
46.6253 95.1496 96.6887 46.6393 95.8906 97.5143 46.7166 96.5948 98.4827 
46.8164 97.2467 99.6081 47.1053 97.6487 100.832 47.6452 97.7689 102.046 
48.1759 97.8821 103.134 48.56 98.1297 104.102 48.9022 98.3653 104.978 
46.9917 94.8819 96.0056 47.3622 95.5588 96.1007 47.7924 96.3879 96.2581 
48.3131 97.2374 96.5301 48.9596 97.9841 96.9328 49.7087 98.6373 97.4366 
50.4534 99.2698 98.0047 51.1685 99.8651 98.5082 51.8523 100.39 98.806 
46.2455 94.5207 96.5322 45.7791 94.7379 97.2508 45.2332 95.0341 98.1168 
44.5707 95.4224 99.0514 43.7251 95.7509 100.074 42.7202 95.9377 101.22 
41.7285 95.9424 102.27 40.8277 95.6803 102.932 39.9944 95.48 103.34 
46.9068 93.7936 95.3616 47.2008 93.4412 94.7587 47.5326 93.6378 94.1602 
47.8218 94.3413 93.5143 47.9358 95.3552 92.889 47.9506 96.4405 92.3356 
47.9518 97.5612 91.8294 47.9443 98.5602 91.3496 47.9389 99.3771 90.9108 
46.3507 93.6355 95.6912 45.8323 93.2269 95.3946 45.2214 93.4089 95.0153 
44.6704 94.1426 94.6413 44.02 94.9358 94.4293 43.2478 95.6442 94.3535 
42.6154 96.3653 94.3831 42.1094 97.016 94.5014 41.5888 97.5165 94.5865 
49.8719 98.694 105.312 50.4837 98.8617 104.814 51.0576 99.0653 104.204 
51.5921 99.2592 103.489 52.0214 99.4766 102.706 52.2805 99.7831 101.906 
52.4153 100.117 101.123 52.4837 100.408 100.376 52.4947 100.659 99.664 
48.3636 98.2458 105.708 47.462 97.8894 105.639 46.5482 97.5518 105.502 
45.4656 97.2767 105.242 44.1732 97.0236 104.963 42.968 96.6628 104.794 
41.9777 96.124 104.662 41.0089 95.6362 104.424 40.042 95.5143 104.094 
49.9654 98.8347 106.167 50.7216 99.1781 106.578 51.4653 99.6969 106.941 
52.1721 100.34 107.197 52.8253 101.07 107.31 53.414 101.93 107.322 
53.8329 102.835 107.216 53.9491 103.574 106.888 53.8717 104.13 106.418 
48.9655 98.6257 106.384 48.5609 98.823 106.921 47.9858 99.1644 107.341 
47.256 99.5654 107.716 46.4551 99.977 108.005 45.6354 100.401 108.123 
44.8297 100.841 108.091 44.0874 101.284 107.967 43.3955 101.676 107.745 
42.4758 104.424 93.3558 42.6274 104.637 94.3942 42.7927 104.855 95.5824 
42.9483 105.107 96.7605 43.1043 105.411 97.9029 43.2518 105.753 98.9904 
43.4114 106.064 99.9383 43.5524 106.37 100.841 43.6848 106.604 101.766 
42.9855 104.404 92.3606 43.6588 104.624 92.3158 44.3921 104.835 92.4283 
45.1894 105.022 92.7642 46.0523 105.166 93.3277 46.931 105.267 94.0439 
47.7512 105.339 94.799 48.5108 105.364 95.5187 49.2497 105.332 96.1853 
41.8471 104.108 93.2622 41.3378 103.972 94.1354 40.8093 103.763 95.0931 
40.2004 103.539 96.0717 39.5653 103.289 97.0551 38.9483 103.011 98.0161 
38.3538 102.761 98.9085 37.8298 102.484 99.7101 37.4086 102.155 100.478 
42.7112 104.027 91.6477 43.0006 103.912 90.6711 43.2424 103.841 89.6261 
43.7715 103.659 88.9602 44.6306 103.248 88.9433 45.4795 102.655 89.2772 
46.1704 102.033 89.6022 46.8154 101.407 89.9112 47.4219 100.747 90.2351 
42.0031 103.809 92.241 41.6447 103.332 92.0451 41.2488 102.793 91.9649 
40.8757 102.11 92.0145 40.6422 101.225 92.2247 40.5672 100.302 92.6174 
40.6061 99.5385 93.113 40.7429 98.9102 93.6264 40.923 98.3689 94.1419 
44.5643 106.847 102.098 45.3301 106.925 101.515 46.1567 106.886 100.817 
47.0032 106.863 100.018 47.8509 106.883 99.2687 48.544 106.677 98.7469 
49.0024 106.24 98.3132 49.3888 105.881 97.7676 49.7224 105.593 97.2219 
43.1295 106.423 102.576 42.3507 106.096 102.528 41.5317 105.699 102.464 
40.7346 105.198 102.403 39.9694 104.628 102.361 39.2207 104.061 102.298 
38.5795 103.456 102.16 38.0679 102.822 101.915 37.5806 102.286 101.593 
44.6935 106.669 103.019 45.7143 106.549 103.398 46.8428 106.391 103.772 
48.0097 106.253 104.152 49.1993 106.063 104.508 50.3155 105.808 104.857 
51.3438 105.574 105.21 52.328 105.317 105.533 53.1222 104.967 105.771 
43.7341 106.457 103.351 43.5884 106.234 104.142 43.3952 105.983 104.912 
43.1582 105.59 105.574 42.9634 105.087 106.167 42.8264 104.587 106.732 
42.7283 103.99 107.129 42.6978 103.259 107.274 42.7102 102.564 107.351 
52.7655 101.205 98.6191 53.0708 101.558 98.2152 53.3097 102.017 97.7871 
53.3474 102.689 97.4137 53.0723 103.431 97.1847 52.5375 104.009 97.0793 
51.8449 104.391 97.0106 51.1165 104.687 96.9445 50.4886 104.995 96.8642 
53.0844 101.167 99.5452 53.7871 101.46 100.151 54.5017 101.696 100.785 
55.0435 101.943 101.552 55.3336 102.348 102.593 55.4234 102.941 103.73 
55.2889 103.548 104.628 54.8864 104.001 105.224 54.3265 104.321 105.637 
52.0253 100.709 98.1469 51.5829 100.485 97.1365 51.2203 100.192 95.9669 
50.9038 99.9087 94.7871 50.492 99.7241 93.6943 50.1249 99.6054 92.6078 
49.8663 99.575 91.5859 49.4482 99.6746 90.8774 48.7464 99.8723 90.5833 
50.5222 105.386 97.6016 51.1608 105.49 98.4499 51.8606 105.588 99.3116 
52.4875 105.59 100.242 53.0291 105.545 101.225 53.5281 105.521 102.289 
53.8439 105.395 103.429 53.9214 105.142 104.445 53.8655 104.858 105.255 
49.6749 104.931 96.0076 49.3839 104.511 95.1682 49.1619 104.1 94.2022 
49.0024 103.692 93.147 48.8255 103.221 92.1387 48.7174 102.65 91.2592 
48.8374 102.019 90.4863 48.8307 101.35 90.0791 48.4448 100.703 90.1925 
38.56 95.9531 103.692 37.9475 96.4721 103.54 37.511 97.1913 103.189 
37.1459 97.9417 102.728 36.6744 98.5441 102.401 36.2081 99.24 102.191 
36.0222 100.163 102.014 36.1927 100.974 101.816 36.6138 101.483 101.551 
39.1121 95.9529 104.372 39.0695 96.5381 104.914 39.1237 97.1853 105.419 
39.2575 97.8893 105.978 39.5595 98.6434 106.541 40.0608 99.4126 106.932 
40.629 100.161 107.246 41.2778 100.836 107.502 42.0147 101.433 107.56 
39.1325 95.7331 102.973 39.106 96.0323 102.079 39.1344 96.3223 101.129 
39.3108 96.7028 100.257 39.6901 97.1271 99.4527 40.148 97.3581 98.5164 
40.5491 97.4781 97.4112 40.8132 97.6335 96.3668 40.9853 97.7818 95.4581 
37.167 101.843 102.251 37.278 101.881 103.263 37.3639 102.039 104.338 
37.4487 102.275 105.418 37.7324 102.455 106.335 38.3947 102.42 107.11 
39.3204 102.261 107.577 40.4098 102.079 107.578 41.5829 101.979 107.443 
36.8467 101.574 100.454 36.8196 101.128 99.7169 37.0729 100.603 99.1242 
37.3345 100.056 98.3696 37.6334 99.4747 97.5145 38.2574 99.0052 96.8938 
39.1598 98.7398 96.4322 39.9787 98.5228 95.8524 40.591 98.2417 95.1993 
53.0913 104.54 106.451 52.2374 104.451 106.889 51.1818 104.314 107.275 
49.9288 104.108 107.65 48.5473 103.845 107.972 47.1604 103.572 108.177 
45.8895 103.271 108.193 44.7912 102.883 107.998 43.7667 102.423 107.699 
47.15 99.915 90.7081 46.3565 99.6371 90.7964 45.4788 99.3095 90.9066 
44.5659 99.0133 91.1413 43.6657 98.6452 91.3056 42.754 98.1795 91.459 
42.0429 97.8635 91.9409 41.6981 97.8165 92.7933 41.4646 97.8869 93.7635 
46.9948 95.6816 96.7604 47.4166 96.3848 96.8979 47.0676 96.4609 97.6434 
47.8986 97.2084 97.1356 47.536 97.1757 97.8703 47.1885 97.1873 98.7291 
48.5186 97.9632 97.5407 48.126 97.9081 98.2507 47.7691 97.8206 99.1013 
47.4159 97.7628 99.9908 49.3249 98.5587 98.0814 48.9339 98.4847 98.775 
48.5822 98.3644 99.5721 48.2345 98.2196 100.428 47.9294 98.0213 101.256 
50.2113 99.104 98.6597 49.9066 98.9395 99.3307 49.6053 98.7625 100.068 
49.2836 98.5763 100.874 48.9281 98.3659 101.675 48.586 98.0911 102.436 
51.0539 99.6571 99.1742 50.8709 99.4207 99.8268 50.655 99.1576 100.519 
50.4017 98.8996 101.29 50.0309 98.6937 102.091 49.5838 98.4791 102.843 
49.1 98.2665 103.515 51.8227 100.183 99.4947 51.7425 99.926 100.175 
51.6137 99.6254 100.88 51.4286 99.2997 101.643 51.0982 99.048 102.451 
50.6114 98.8695 103.227 50.064 98.6889 103.904 49.4972 98.5138 104.477 
47.2816 94.492 95.3609 47.5991 94.4185 94.7215 47.6416 95.4252 95.4467 
47.9776 94.7043 94.0462 47.9452 95.5322 94.7912 48.104 96.3825 95.6297 
48.3869 95.2639 93.3248 48.3892 95.7946 94.0984 48.4467 96.5462 94.9864 
48.7032 97.2733 95.9209 48.6761 96.0575 92.625 48.9244 96.2252 93.3106 
48.9223 96.8186 94.2686 49.0998 97.4446 95.2652 49.3905 98.0712 96.3002 
48.7859 97.0656 92.0308 49.3199 96.88 92.5368 49.4138 97.2 93.4728 
49.5143 97.7315 94.549 49.7865 98.2754 95.631 50.0921 98.8189 96.8046 
48.7947 98.136 91.4849 49.5112 97.7717 91.8498 49.7859 97.7854 92.6937 
49.9006 98.1389 93.816 50.1487 98.598 94.9431 50.4411 99.0724 96.118 
50.7584 99.5296 97.3729 48.7861 99.0595 90.9699 49.552 98.7505 91.2626 
49.9385 98.6279 92.026 50.125 98.7772 93.1403 50.4289 99.0702 94.2794 
50.7456 99.4282 95.4245 51.0366 99.8233 96.6587 51.4123 100.169 97.8416 
49.156 100.533 90.4779 49.251 101.243 90.8141 49.6061 100.455 91.1711 
49.1526 101.944 91.5268 49.5903 101.244 91.8232 49.936 100.474 92.1537 
49.2369 102.634 92.3432 49.6817 102.009 92.599 50.1086 101.328 92.8648 
50.3879 100.514 93.2102 49.4857 103.236 93.2577 49.9532 102.713 93.435 
50.4288 102.109 93.6439 50.7666 101.36 93.9161 50.9029 100.569 94.3024 
49.6802 103.722 94.2812 50.202 103.285 94.4074 50.7608 102.778 94.5422 
51.2013 102.14 94.7404 51.35 101.387 95.0788 51.3272 100.716 95.5062 
49.9343 104.195 95.2275 50.521 103.819 95.3353 51.1213 103.361 95.4588 
51.6545 102.8 95.5981 51.9158 102.122 95.8686 51.8932 101.457 96.2732 
51.7577 100.919 96.7112 50.2262 104.633 96.0817 50.8747 104.319 96.1588 
51.5627 103.947 96.2567 52.1497 103.435 96.366 52.5356 102.782 96.556 
52.6196 102.085 96.8986 52.4891 101.514 97.3243 52.2737 101.084 97.7485 
53.4848 101.543 99.1762 53.8862 101.92 98.7159 54.2949 101.852 99.7299 
54.1055 102.496 98.2653 54.7026 102.347 99.2042 55.0125 102.166 100.309 
53.9608 103.293 97.9788 54.7541 103.089 98.8165 55.2319 102.88 99.8429 
55.3691 102.625 101.16 53.4545 104.015 97.8653 54.379 103.905 98.6758 
55.0273 103.726 99.6102 55.3349 103.539 100.843 55.4308 103.281 102.315 
52.7078 104.46 97.8257 53.6648 104.494 98.6535 54.451 104.417 99.5636 
54.9289 104.299 100.672 55.2165 104.176 102.024 55.3288 103.923 103.418 
[...]
POINT_DATA 1002
SCALARS Color_Map_Phi float
LOOKUP_TABLE default
6.28319 3.14159 6.28319 3.14159 4.71239 4.71239 1.5708 1.5708 3.69517 
5.72961 2.58802 0.553574 6.28319 6.28319 6.28319 6.28319 3.14159 3.14159 
3.14159 3.14159 3.14159 6.1053 5.8988 5.67687 5.45995 5.26596 5.10322 
4.97131 4.86569 4.78095 0.177881 0.384387 0.606312 0.823235 1.01722 1.17997 
1.31187 1.4175 1.50223 6.18928 6.10703 6.03531 5.97283 5.91832 5.87061 
5.82869 5.79168 5.75886 0.0939024 0.176153 0.247873 0.310351 0.364864 0.412573 
0.454497 0.491504 0.524326 3.31947 3.52598 3.7479 3.96483 4.15881 4.32156 
4.45346 4.55909 4.64383 2.96371 2.75721 2.53528 2.31836 2.12437 1.96162 
1.82972 1.72409 1.63936 3.2355 3.31775 3.38947 3.45194 3.50646 3.55417 
3.59609 3.6331 3.66592 3.04769 2.96544 2.89372 2.83124 2.77673 2.72902 
2.6871 2.65009 2.61727 6.28319 6.28319 6.28319 6.28319 3.14159 3.14159 
3.14159 3.14159 3.14159 6.1053 5.8988 5.67687 5.45995 5.26596 5.10322 
4.97131 4.86569 4.78095 0.177881 0.384387 0.606312 0.823235 1.01722 1.17997 
1.31187 1.4175 1.50223 6.18928 6.10703 6.03531 5.97283 5.91832 5.87061 
5.82869 5.79168 5.75886 0.0939024 0.176153 0.247873 0.310351 0.364864 0.412573 
0.454497 0.491504 0.524326 3.31947 3.52598 3.7479 3.96483 4.15881 4.32156 
4.45346 4.55909 4.64383 2.96371 2.75721 2.53528 2.31836 2.12437 1.96162 
1.82972 1.72409 1.63936 3.2355 3.31775 3.38947 3.45194 3.50646 3.55417 
3.59609 3.6331 3.66592 3.04769 2.96544 2.89372 2.83124 2.77673 2.72902 
2.6871 2.65009 2.61727 4.71239 4.71239 4.71239 4.71239 4.71239 4.71239 
4.71239 4.71239 4.71239 4.60879 4.49914 4.3857 4.27128 4.15881 4.05096 
3.94976 3.85646 3.77161 4.81599 4.92564 5.03907 5.1535 5.26596 5.37381 
5.47502 5.56831 5.65317 4.60879 4.49914 4.3857 4.27128 4.15881 4.05096 
3.94976 3.85646 3.77161 4.81599 4.92564 5.03907 5.1535 5.26596 5.37381 
5.47502 5.56831 5.65317 1.5708 1.5708 1.5708 1.5708 1.5708 1.5708 
1.5708 1.5708 1.5708 1.6744 1.78405 1.89748 2.01191 2.12437 2.23222 
2.33343 2.42672 2.51157 1.4672 1.35755 1.24411 1.12969 1.01722 0.909371 
0.808166 0.714871 0.63002 1.6744 1.78405 1.89748 2.01191 2.12437 2.23222 
2.33343 2.42672 2.51157 1.4672 1.35755 1.24411 1.12969 1.01722 0.909371 
0.808166 0.714871 0.63002 3.60077 3.49669 3.38395 3.26458 3.14159 3.01861 
2.89924 2.78649 2.68241 5.82401 5.92808 6.04083 6.1602 6.28319 0.122983 
0.242354 0.355101 0.459179 6.05603 5.78856 5.97021 5.51259 5.60297 5.78856 
5.26596 5.26596 5.26596 5.26596 5.06749 5.0121 4.91556 4.71239 4.15881 
4.91556 4.83537 4.71239 4.50922 4.15881 3.63622 4.80045 4.71239 4.58941 
4.41268 4.15881 3.82181 3.45456 4.71239 4.62433 4.50922 4.35729 4.15881 
3.91219 3.63622 3.36875 6.01742 5.94343 5.82633 5.88092 5.76745 5.62798 
5.8278 5.71897 5.58911 5.43724 5.78235 5.67854 5.55757 5.41926 5.26596 
5.74316 5.64441 5.5315 5.40467 5.26596 5.11955 5.70914 5.61528 5.50962 
5.3926 5.26596 5.13292 4.99789 5.67937 5.59016 5.49102 5.38246 5.26596 
5.14407 5.02016 4.89798 5.56831 5.47502 5.47502 5.37381 5.37381 5.37381 
5.26596 5.26596 5.26596 5.26596 5.1535 5.1535 5.1535 5.1535 5.1535 
5.03907 5.03907 5.03907 5.03907 5.03907 5.03907 4.92564 4.92564 4.92564 
4.92564 4.92564 4.92564 4.92564 4.81599 4.81599 4.81599 4.81599 4.81599 
4.81599 4.81599 4.81599 4.60879 4.60879 4.49914 4.60879 4.49914 4.3857 
4.60879 4.49914 4.3857 4.27128 4.60879 4.49914 4.3857 4.27128 4.15881 
4.60879 4.49914 4.3857 4.27128 4.15881 4.05096 4.60879 4.49914 4.3857 
4.27128 4.15881 4.05096 3.94976 4.60879 4.49914 4.3857 4.27128 4.15881 
4.05096 3.94976 3.85646 4.5268 4.40462 4.42689 4.28071 4.29185 4.30523 
4.15881 4.15881 4.15881 4.15881 4.04232 4.03217 4.02011 4.00552 3.98753 
3.93376 3.91515 3.89328 3.86721 3.83566 3.7968 3.83461 3.8095 3.78037 
3.74624 3.70581 3.65733 3.59845 3.7454 3.71564 3.68161 3.64243 3.59698 
3.54386 3.48135 3.40735 3.56428 3.45246 3.52338 3.33203 3.40312 3.47739 
3.20576 3.27463 3.34802 3.42551 3.07742 3.14159 3.21128 3.28647 3.36688 
2.95116 3.00855 3.0719 3.14159 3.21784 3.3006 2.83072 2.88006 2.93517 
2.99672 3.06535 3.14159 3.22575 2.7189 2.7598 2.8058 2.85768 2.9163 
2.98259 3.05743 3.14159 3.56428 3.52338 3.45246 3.47739 3.40312 3.33203 
3.42551 3.34802 3.27463 3.20576 3.36688 3.28647 3.21128 3.14159 3.07742 
3.3006 3.21784 3.14159 3.0719 3.00855 2.95116 3.22575 3.14159 3.06535 
2.99672 2.93517 2.88006 2.83072 3.14159 3.05743 2.98259 2.9163 2.85768 
2.8058 2.7598 2.7189 4.5268 4.42689 4.40462 4.30523 4.29185 4.28071 
4.15881 4.15881 4.15881 4.15881 3.98753 4.00552 4.02011 4.03217 4.04232 
3.7968 3.83566 3.86721 3.89328 3.91515 3.93376 3.59845 3.65733 3.70581 
3.74624 3.78037 3.8095 3.83461 3.40735 3.48135 3.54386 3.59698 3.64243 
3.68161 3.71564 3.7454 4.71239 4.80045 4.62433 4.91556 4.71239 4.50922 
5.06749 4.83537 4.58941 4.35729 5.26596 5.0121 4.71239 4.41268 4.15881 
5.51259 5.26596 4.91556 4.50922 4.15881 3.91219 5.78856 5.60297 5.26596 
4.71239 4.15881 3.82181 3.63622 6.05603 5.97021 5.78856 5.26596 4.15881 
3.63622 3.45456 3.36875 0.227158 0.494626 0.312971 0.770593 0.680215 0.494626 
1.01722 1.01722 1.01722 1.01722 1.2157 1.27109 1.36763 1.5708 2.12437 
1.36763 1.44781 1.5708 1.77397 2.12437 2.64697 1.48273 1.5708 1.69378 
1.8705 2.12437 2.46138 2.82862 1.5708 1.65886 1.77397 1.9259 2.12437 
2.371 2.64697 2.91443 1.75639 1.87857 1.8563 2.00248 1.99133 1.97796 
2.12437 2.12437 2.12437 2.12437 2.24087 2.25101 2.26308 2.27767 2.29565 
2.34943 2.36803 2.38991 2.41597 2.44752 2.48639 2.44857 2.47368 2.50281 
2.53694 2.57738 2.62586 2.68474 2.53778 2.56754 2.60157 2.64076 2.68621 
2.73933 2.80184 2.87583 1.6744 1.6744 1.78405 1.6744 1.78405 1.89748 
1.6744 1.78405 1.89748 2.01191 1.6744 1.78405 1.89748 2.01191 2.12437 
1.6744 1.78405 1.89748 2.01191 2.12437 2.23222 1.6744 1.78405 1.89748 
2.01191 2.12437 2.23222 2.33343 1.6744 1.78405 1.89748 2.01191 2.12437 
2.23222 2.33343 2.42672 1.4672 1.35755 1.4672 1.24411 1.35755 1.4672 
1.12969 1.24411 1.35755 1.4672 1.01722 1.12969 1.24411 1.35755 1.4672 
0.909371 1.01722 1.12969 1.24411 1.35755 1.4672 0.808166 0.909371 1.01722 
1.12969 1.24411 1.35755 1.4672 0.714871 0.808166 0.909371 1.01722 1.12969 
1.24411 1.35755 1.4672 0.603812 0.57405 0.693022 0.540021 0.667908 0.792164 
0.500837 0.638778 0.773562 0.900726 0.455383 0.604649 0.751687 0.890581 1.01722 
0.402264 0.564217 0.725619 0.878514 1.01722 1.13912 0.339753 0.515737 0.694072 
0.863926 1.01722 1.15026 1.26302 0.265762 0.456853 0.655207 0.845941 1.01722 
1.16363 1.28529 1.38521 0.227158 0.312971 0.494626 0.494626 0.680215 0.770593 
1.01722 1.01722 1.01722 1.01722 2.12437 1.5708 1.36763 1.27109 1.2157 
2.64697 2.12437 1.77397 1.5708 1.44781 1.36763 2.82862 2.46138 2.12437 
1.8705 1.69378 1.5708 1.48273 2.91443 2.64697 2.371 2.12437 1.9259 
1.77397 1.65886 1.5708 1.75639 1.8563 1.87857 1.97796 1.99133 2.00248 
2.12437 2.12437 2.12437 2.12437 2.29565 2.27767 2.26308 2.25101 2.24087 
2.48639 2.44752 2.41597 2.38991 2.36803 2.34943 2.68474 2.62586 2.57738 
2.53694 2.50281 2.47368 2.44857 2.87583 2.80184 2.73933 2.68621 2.64076 
2.60157 2.56754 2.53778 5.86049 5.90139 5.97231 5.94739 6.02165 6.09275 
5.99927 6.07676 6.15015 6.21902 6.0579 6.13831 6.2135 0 0.0641696 
6.12418 6.20694 6.28319 0.069689 0.13304 0.190437 6.19903 0 0.0762451 
0.144876 0.206423 0.261531 0.310872 0 0.0841597 0.159004 0.225289 0.283913 
0.335793 0.381792 0.422692 5.86049 5.97231 5.90139 6.09275 6.02165 5.94739 
6.21902 6.15015 6.07676 5.99927 0.0641696 0 6.2135 6.13831 6.0579 
0.190437 0.13304 0.069689 6.28319 6.20694 6.12418 0.310872 0.261531 0.206423 
0.144876 0.0762451 6.28319 6.19903 0.422692 0.381792 0.335793 0.283913 0.225289 
0.159004 0.0841597 0 5.67937 5.70914 5.59016 5.74316 5.61528 5.49102 
5.78235 5.64441 5.50962 5.38246 5.8278 5.67854 5.5315 5.3926 5.26596 
5.88092 5.71897 5.55757 5.40467 5.26596 5.14407 5.94343 5.76745 5.58911 
5.41926 5.26596 5.13292 5.02016 6.01742 5.82633 5.62798 5.43724 5.26596 
5.11955 4.99789 4.89798 1.38521 1.28529 1.26302 1.16363 1.15026 1.13912 
1.01722 1.01722 1.01722 1.01722 0.845941 0.863926 0.878514 0.890581 0.900726 
0.655207 0.694072 0.725619 0.751687 0.773562 0.792164 0.456853 0.515737 0.564217 
0.604649 0.638778 0.667908 0.693022 0.265762 0.339753 0.402264 0.455383 0.500837 
0.540021 0.57405 0.603812 
