# vtk DataFile Version 4.1
vtk output
ASCII
DATASET POLYDATA
POINTS 1002 float
46.943 95.3219 95.8973 49.5504 100.508 105.022 42.9158 104.278 93.975 
45.2257 106.766 103.035 54.2858 102.461 98.1234 51.1687 107.257 96.5266 
39.9201 96.4325 103.879 36.1341 101.93 101.883 56.2242 106.694 106.68 
48.7329 100.703 90.1722 43.5679 102.392 109.363 40.7743 96.6504 95.0225 
46.9352 96.1082 96.4573 46.9787 96.9273 97.1704 47.0704 97.752 98.0311 
47.2142 98.5144 99.0043 47.4226 99.1903 100.037 47.7095 99.7622 101.152 
48.0673 100.161 102.335 48.4927 100.392 103.411 49.0049 100.493 104.292 
47.3886 96.0611 95.8596 47.941 96.8806 95.8761 48.619 97.7009 95.9846 
49.3347 98.5518 96.2085 50.039 99.474 96.4936 50.7538 100.4 96.8412 
51.5762 101.197 97.2417 52.5185 101.753 97.6134 53.4604 102.136 97.894 
46.5227 95.1485 96.3131 46.02 95.1912 96.8337 45.4093 95.3889 97.4787 
44.7193 95.6493 98.2882 44.0006 95.9066 99.2242 43.2299 96.1478 100.222 
42.3855 96.3039 101.274 41.4812 96.3811 102.301 40.6787 96.3817 103.196 
47.2894 94.9683 95.3746 47.7187 94.7957 94.7999 48.2253 94.8343 94.157 
48.7108 95.1461 93.4038 48.9838 95.8166 92.6872 49.0352 96.7995 92.1201 
48.9469 97.9152 91.6275 48.8294 98.9738 91.1164 48.761 99.8869 90.6086 
46.7695 94.2528 95.6671 46.5654 93.0525 95.4949 46.1243 92.0318 95.2934 
45.3405 92.0641 95.0107 44.3836 92.8056 94.6687 43.4464 93.6367 94.4055 
42.6065 94.4385 94.4044 41.8996 95.2325 94.5895 41.3156 96.0135 94.8344 
49.9931 100.934 104.546 50.4844 101.382 104.047 51.027 101.8 103.506 
51.5505 102.188 102.867 51.9958 102.523 102.09 52.4447 102.724 101.228 
52.9245 102.78 100.354 53.4556 102.7 99.5863 53.9239 102.577 98.8773 
48.7161 100.129 105.039 47.7421 99.7711 104.994 46.7277 99.3633 104.852 
45.6956 98.8913 104.662 44.6608 98.3812 104.516 43.7181 97.795 104.453 
42.838 97.218 104.393 41.8538 96.8411 104.243 40.8248 96.6344 104.058 
50.3955 100.759 105.401 51.2804 101.088 105.771 52.182 101.564 106.166 
53.1162 102.203 106.541 53.9833 102.919 106.765 54.79 103.648 106.89 
55.5438 104.409 107 56.1187 105.233 107.049 56.3369 106.021 106.934 
49.58 100.251 105.757 49.4936 100.026 106.588 49.1256 100.004 107.383 
48.5123 100.172 108.102 47.734 100.441 108.719 46.8898 100.702 109.254 
45.9932 101.015 109.643 45.0771 101.487 109.749 44.2304 101.97 109.617 
42.9271 104.717 94.6369 42.9497 105.167 95.401 43.0008 105.61 96.2697 
43.1253 106.023 97.2439 43.2901 106.392 98.3067 43.5129 106.656 99.4123 
43.8766 106.777 100.475 44.3372 106.802 101.436 44.8026 106.791 102.294 
43.5109 104.717 93.6933 44.1735 105.157 93.4538 44.8933 105.608 93.3364 
45.6889 106.074 93.3671 46.5771 106.51 93.5441 47.5385 106.857 93.9136 
48.5313 107.089 94.4997 49.4953 107.22 95.1924 50.3846 107.272 95.8811 
42.3484 104.086 94.6924 41.716 103.858 95.4864 40.9566 103.614 96.3168 
40.0969 103.363 97.1496 39.2493 103.104 97.9595 38.4334 102.86 98.7553 
37.6454 102.635 99.5154 36.9767 102.396 100.264 36.4842 102.151 101.057 
43.2858 104.092 93.1496 43.7276 103.871 92.2469 44.159 103.641 91.2763 
44.5037 103.412 90.2123 44.9371 103.116 89.4221 45.6979 102.767 89.1584 
46.6356 102.355 89.3635 47.4807 101.834 89.6733 48.1687 101.254 89.9284 
42.5576 103.71 93.7953 42.1678 103.082 93.6587 41.7689 102.375 93.5941 
41.3585 101.568 93.5851 40.977 100.675 93.6841 40.6782 99.7093 93.8858 
40.514 98.7164 94.1455 40.5154 97.8538 94.4359 40.6319 97.201 94.7427 
45.7677 107.158 102.628 46.3611 107.518 102.055 46.9956 107.867 101.316 
47.643 108.164 100.496 48.324 108.315 99.7228 49.0542 108.271 98.9599 
49.7763 108.098 98.1919 50.3842 107.871 97.5125 50.8456 107.576 96.9598 
44.4044 106.359 102.98 43.4671 105.922 102.948 42.4295 105.502 102.954 
41.3068 105.064 102.94 40.1687 104.57 102.876 39.1003 104.062 102.763 
38.1421 103.576 102.604 37.3547 103.022 102.359 36.6963 102.445 102.123 
45.9915 106.986 103.515 46.8656 107.187 103.991 47.9052 107.364 104.497 
49.1627 107.435 104.979 50.5774 107.416 105.379 52.0435 107.421 105.756 
53.3849 107.496 106.18 54.5629 107.454 106.504 55.5094 107.181 106.664 
45.1463 106.478 103.699 45.0281 106.146 104.439 44.8538 105.793 105.239 
44.6009 105.453 106.059 44.3268 105.083 106.865 44.0966 104.637 107.642 
43.919 104.148 108.315 43.7653 103.633 108.82 43.6421 103.047 109.162 
54.8762 102.675 97.7697 55.2718 103.093 97.4012 55.2738 103.795 97.1662 
54.943 104.576 97.1374 54.4608 105.22 97.1487 53.8819 105.75 97.075 
53.2047 106.234 96.9446 52.5008 106.658 96.8042 51.8325 107 96.6571 
54.8697 102.844 98.9379 55.5647 103.217 99.9262 56.4132 103.523 100.89 
57.3714 103.803 101.803 57.9425 104.324 102.744 58.1465 104.932 103.869 
57.9722 105.513 104.918 57.5441 105.961 105.722 56.9623 106.363 106.295 
54.0736 102.164 97.2215 53.7016 101.891 96.2803 53.1344 101.666 95.2657 
52.4242 101.457 94.2235 51.801 101.17 93.1577 51.3539 100.841 92.053 
50.9314 100.598 91.06 50.3441 100.533 90.4369 49.5735 100.6 90.2012 
51.8196 107.414 97.4086 52.5378 107.496 98.4518 53.334 107.569 99.5876 
54.23 107.691 100.687 55.1861 107.833 101.781 55.9411 107.865 103.002 
56.3193 107.713 104.225 56.4224 107.449 105.278 56.3936 107.101 106.093 
50.9684 106.915 95.7068 50.7483 106.495 94.7489 50.5129 106.005 93.6362 
50.2495 105.43 92.5223 50.0169 104.763 91.4308 49.9202 104.019 90.3443 
49.8686 103.212 89.6094 49.6564 102.338 89.4911 49.2345 101.471 89.7753 
38.9428 96.3629 104.119 37.9244 96.4377 104.23 36.9235 96.7242 104.188 
36.0761 97.2609 103.959 35.5532 97.9843 103.685 35.2643 98.9141 103.441 
35.1341 99.9662 103.145 35.2705 100.846 102.735 35.6605 101.454 102.288 
39.762 96.7017 104.564 39.6522 97.1352 105.224 39.6905 97.6862 105.928 
39.9194 98.294 106.59 40.3758 98.9472 107.192 40.9875 99.61 107.844 
41.6222 100.247 108.485 42.2449 100.924 108.956 42.9048 101.669 109.234 
39.5582 96.1953 103.289 39.2827 96.0466 102.459 39.0798 96.0187 101.405 
39.0187 95.9714 100.301 39.1538 95.8817 99.1743 39.393 95.8063 98.0881 
39.7164 95.8838 97.1083 40.0837 96.077 96.2868 40.4584 96.3525 95.6153 
36.2495 101.985 102.891 36.547 102.009 103.893 36.9978 102.077 104.886 
37.6064 102.183 105.879 38.3732 102.247 106.757 39.346 102.275 107.455 
40.4718 102.303 108.045 41.5744 102.328 108.554 42.5903 102.356 108.99 
35.8963 101.499 101.101 35.7548 100.965 100.263 35.8118 100.326 99.5017 
36.0864 99.6341 98.7455 36.647 98.9033 98.0342 37.2901 98.2037 97.3217 
38.0194 97.627 96.6233 38.9541 97.2518 96.0032 39.9318 96.9538 95.4921 
55.4619 106.558 107.149 54.4028 106.331 107.602 53.114 106.04 108.08 
51.6594 105.604 108.446 50.0834 104.952 108.601 48.54 104.32 108.84 
47.1415 103.855 109.279 45.8606 103.422 109.617 44.6514 102.902 109.617 
47.8537 100.279 90.4449 46.9995 99.7434 90.6574 46.1296 99.1427 90.9591 
45.1495 98.5019 91.3522 44.0734 97.7937 91.6637 43.1052 97.1638 91.9653 
42.3643 96.7546 92.5673 41.8203 96.614 93.4432 41.3441 96.6172 94.3154 
47.4355 96.8659 96.4829 48.0645 97.6798 96.5783 47.5391 97.6947 97.2745 
48.7856 98.5094 96.8223 48.2259 98.5146 97.4851 47.7075 98.5021 98.245 
49.5228 99.3829 97.1519 49.0025 99.3127 97.8302 48.4685 99.2698 98.5506 
47.9357 99.2381 99.3005 50.2533 100.316 97.4775 49.7675 100.203 98.1799 
49.2686 100.09 98.8957 48.733 100.009 99.6433 48.1942 99.9274 100.395 
51.0781 101.178 97.8194 50.5834 101.111 98.5089 50.0819 100.996 99.2366 
49.5554 100.84 100.017 49.0135 100.677 100.821 48.5171 100.456 101.596 
52.0243 101.836 98.1901 51.4987 101.852 98.8672 50.9849 101.802 99.63 
50.4656 101.63 100.449 49.9244 101.386 101.291 49.4079 101.096 102.091 
48.9357 100.753 102.793 52.9934 102.27 98.5546 52.4727 102.374 99.2303 
51.9308 102.392 100.029 51.4395 102.274 100.884 50.9628 102.003 101.743 
50.444 101.668 102.539 49.9197 101.304 103.212 49.4398 100.899 103.777 
47.7445 95.8857 95.2933 48.2336 95.8054 94.6892 48.3608 96.7953 95.285 
48.8326 95.8773 93.9537 48.8702 96.8192 94.6318 49.0766 97.6919 95.3742 
49.4214 96.1552 93.1466 49.4966 96.914 93.8829 49.587 97.788 94.6941 
49.8301 98.6142 95.5623 49.8619 96.6555 92.3763 50.1815 97.0773 93.0289 
50.2158 97.8966 93.9615 50.3544 98.7402 94.9145 50.5662 99.586 95.884 
49.9651 97.5631 91.7116 50.6391 97.5321 92.1386 50.8112 98.0863 93.0975 
50.8844 98.9097 94.2189 51.0791 99.7445 95.2872 51.3202 100.53 96.3133 
49.8353 98.6608 91.1517 50.707 98.4173 91.3963 51.1462 98.6228 92.2023 
51.2993 99.258 93.3835 51.5202 100.003 94.5819 51.8668 100.677 95.7048 
52.2299 101.251 96.7301 49.6745 99.706 90.6538 50.5384 99.5205 90.8542 
51.1319 99.5648 91.5104 51.4581 99.9443 92.5909 51.7873 100.477 93.7842 
52.2756 100.96 94.9427 52.8025 101.361 96.0375 53.1914 101.762 97.0189 
50.0107 101.45 89.9645 50.2726 102.388 90.0412 50.6145 101.524 90.5531 
50.348 103.304 90.6134 50.7279 102.547 91.0795 51.0733 101.728 91.5734 
50.4356 104.153 91.5945 50.8499 103.475 91.941 51.2419 102.765 92.3693 
51.586 101.977 92.7478 50.6932 104.931 92.6632 51.1533 104.316 92.9224 
51.606 103.646 93.2606 52.0177 102.925 93.5642 52.3343 102.154 93.8192 
51.016 105.585 93.7535 51.5454 105.053 93.9492 52.0847 104.441 94.1979 
52.5806 103.763 94.4333 53.0136 102.997 94.5877 53.2427 102.24 94.8084 
51.3001 106.123 94.8641 51.8892 105.655 95.016 52.5122 105.113 95.1814 
53.0894 104.523 95.3382 53.6134 103.815 95.4175 54.0129 102.995 95.4828 
54.0626 102.296 95.7662 51.5733 106.599 95.8322 52.2018 106.185 95.9831 
52.8777 105.692 96.1187 53.516 105.163 96.2307 54.0721 104.567 96.2732 
54.5558 103.804 96.2523 54.7998 102.995 96.3697 54.6025 102.432 96.7589 
55.4708 103.152 98.677 55.7641 103.727 98.3728 56.0599 103.691 99.7348 
55.6778 104.496 98.1994 56.2769 104.377 99.4711 56.7981 104.165 100.705 
55.3295 105.242 98.1402 56.1332 105.169 99.2926 56.8563 105.006 100.452 
57.5023 104.702 101.587 54.7975 105.851 98.0665 55.6919 105.884 99.1769 
56.6061 105.824 100.289 57.3805 105.66 101.391 57.9016 105.357 102.616 
54.1242 106.36 97.9135 55.0344 106.464 99.0285 55.9935 106.506 100.161 
56.9451 106.486 101.278 57.6585 106.343 102.476 57.9315 105.949 103.754 
[...]
POINT_DATA 1002
SCALARS Color_Map_Phi float
LOOKUP_TABLE default
6.28319 3.14159 6.28319 3.14159 4.71239 4.71239 1.5708 1.5708 3.69517 
5.72961 2.58802 0.553574 6.28319 6.28319 6.28319 6.28319 3.14159 3.14159 
3.14159 3.14159 3.14159 6.1053 5.8988 5.67687 5.45995 5.26596 5.10322 
4.97131 4.86569 4.78095 0.177881 0.384387 0.606312 0.823235 1.01722 1.17997 
1.31187 1.4175 1.50223 6.18928 6.10703 6.03531 5.97283 5.91832 5.87061 
5.82869 5.79168 5.75886 0.0939024 0.176153 0.247873 0.310351 0.364864 0.412573 
0.454497 0.491504 0.524326 3.31947 3.52598 3.7479 3.96483 4.15881 4.32156 
4.45346 4.55909 4.64383 2.96371 2.75721 2.53528 2.31836 2.12437 1.96162 
1.82972 1.72409 1.63936 3.2355 3.31775 3.38947 3.45194 3.50646 3.55417 
3.59609 3.6331 3.66592 3.04769 2.96544 2.89372 2.83124 2.77673 2.72902 
2.6871 2.65009 2.61727 6.28319 6.28319 6.28319 6.28319 3.14159 3.14159 
3.14159 3.14159 3.14159 6.1053 5.8988 5.67687 5.45995 5.26596 5.10322 
4.97131 4.86569 4.78095 0.177881 0.384387 0.606312 0.823235 1.01722 1.17997 
1.31187 1.4175 1.50223 6.18928 6.10703 6.03531 5.97283 5.91832 5.87061 
5.82869 5.79168 5.75886 0.0939024 0.176153 0.247873 0.310351 0.364864 0.412573 
0.454497 0.491504 0.524326 3.31947 3.52598 3.7479 3.96483 4.15881 4.32156 
4.45346 4.55909 4.64383 2.96371 2.75721 2.53528 2.31836 2.12437 1.96162 
1.82972 1.72409 1.63936 3.2355 3.31775 3.38947 3.45194 3.50646 3.55417 
3.59609 3.6331 3.66592 3.04769 2.96544 2.89372 2.83124 2.77673 2.72902 
2.6871 2.65009 2.61727 4.71239 4.71239 4.71239 4.71239 4.71239 4.71239 
4.71239 4.71239 4.71239 4.60879 4.49914 4.3857 4.27128 4.15881 4.05096 
3.94976 3.85646 3.77161 4.81599 4.92564 5.03907 5.1535 5.26596 5.37381 
5.47502 5.56831 5.65317 4.60879 4.49914 4.3857 4.27128 4.15881 4.05096 
3.94976 3.85646 3.77161 4.81599 4.92564 5.03907 5.1535 5.26596 5.37381 
5.47502 5.56831 5.65317 1.5708 1.5708 1.5708 1.5708 1.5708 1.5708 
1.5708 1.5708 1.5708 1.6744 1.78405 1.89748 2.01191 2.12437 2.23222 
2.33343 2.42672 2.51157 1.4672 1.35755 1.24411 1.12969 1.01722 0.909371 
0.808166 0.714871 0.63002 1.6744 1.78405 1.89748 2.01191 2.12437 2.23222 
2.33343 2.42672 2.51157 1.4672 1.35755 1.24411 1.12969 1.01722 0.909371 
0.808166 0.714871 0.63002 3.60077 3.49669 3.38395 3.26458 3.14159 3.01861 
2.89924 2.78649 2.68241 5.82401 5.92808 6.04083 6.1602 6.28319 0.122983 
0.242354 0.355101 0.459179 6.05603 5.78856 5.97021 5.51259 5.60297 5.78856 
5.26596 5.26596 5.26596 5.26596 5.06749 5.0121 4.91556 4.71239 4.15881 
4.91556 4.83537 4.71239 4.50922 4.15881 3.63622 4.80045 4.71239 4.58941 
4.41268 4.15881 3.82181 3.45456 4.71239 4.62433 4.50922 4.35729 4.15881 
3.91219 3.63622 3.36875 6.01742 5.94343 5.82633 5.88092 5.76745 5.62798 
5.8278 5.71897 5.58911 5.43724 5.78235 5.67854 5.55757 5.41926 5.26596 
5.74316 5.64441 5.5315 5.40467 5.26596 5.11955 5.70914 5.61528 5.50962 
5.3926 5.26596 5.13292 4.99789 5.67937 5.59016 5.49102 5.38246 5.26596 
5.14407 5.02016 4.89798 5.56831 5.47502 5.47502 5.37381 5.37381 5.37381 
5.26596 5.26596 5.26596 5.26596 5.1535 5.1535 5.1535 5.1535 5.1535 
5.03907 5.03907 5.03907 5.03907 5.03907 5.03907 4.92564 4.92564 4.92564 
4.92564 4.92564 4.92564 4.92564 4.81599 4.81599 4.81599 4.81599 4.81599 
4.81599 4.81599 4.81599 4.60879 4.60879 4.49914 4.60879 4.49914 4.3857 
4.60879 4.49914 4.3857 4.27128 4.60879 4.49914 4.3857 4.27128 4.15881 
4.60879 4.49914 4.3857 4.27128 4.15881 4.05096 4.60879 4.49914 4.3857 
4.27128 4.15881 4.05096 3.94976 4.60879 4.49914 4.3857 4.27128 4.15881 
4.05096 3.94976 3.85646 4.5268 4.40462 4.42689 4.28071 4.29185 4.30523 
4.15881 4.15881 4.15881 4.15881 4.04232 4.03217 4.02011 4.00552 3.98753 
3.93376 3.91515 3.89328 3.86721 3.83566 3.7968 3.83461 3.8095 3.78037 
3.74624 3.70581 3.65733 3.59845 3.7454 3.71564 3.68161 3.64243 3.59698 
3.54386 3.48135 3.40735 3.56428 3.45246 3.52338 3.33203 3.40312 3.47739 
3.20576 3.27463 3.34802 3.42551 3.07742 3.14159 3.21128 3.28647 3.36688 
2.95116 3.00855 3.0719 3.14159 3.21784 3.3006 2.83072 2.88006 2.93517 
2.99672 3.06535 3.14159 3.22575 2.7189 2.7598 2.8058 2.85768 2.9163 
2.98259 3.05743 3.14159 3.56428 3.52338 3.45246 3.47739 3.40312 3.33203 
3.42551 3.34802 3.27463 3.20576 3.36688 3.28647 3.21128 3.14159 3.07742 
3.3006 3.21784 3.14159 3.0719 3.00855 2.95116 3.22575 3.14159 3.06535 
2.99672 2.93517 2.88006 2.83072 3.14159 3.05743 2.98259 2.9163 2.85768 
2.8058 2.7598 2.7189 4.5268 4.42689 4.40462 4.30523 4.29185 4.28071 
4.15881 4.15881 4.15881 4.15881 3.98753 4.00552 4.02011 4.03217 4.04232 
3.7968 3.83566 3.86721 3.89328 3.91515 3.93376 3.59845 3.65733 3.70581 
3.74624 3.78037 3.8095 3.83461 3.40735 3.48135 3.54386 3.59698 3.64243 
3.68161 3.71564 3.7454 4.71239 4.80045 4.62433 4.91556 4.71239 4.50922 
5.06749 4.83537 4.58941 4.35729 5.26596 5.0121 4.71239 4.41268 4.15881 
5.51259 5.26596 4.91556 4.50922 4.15881 3.91219 5.78856 5.60297 5.26596 
4.71239 4.15881 3.82181 3.63622 6.05603 5.97021 5.78856 5.26596 4.15881 
3.63622 3.45456 3.36875 0.227158 0.494626 0.312971 0.770593 0.680215 0.494626 
1.01722 1.01722 1.01722 1.01722 1.2157 1.27109 1.36763 1.5708 2.12437 
1.36763 1.44781 1.5708 1.77397 2.12437 2.64697 1.48273 1.5708 1.69378 
1.8705 2.12437 2.46138 2.82862 1.5708 1.65886 1.77397 1.9259 2.12437 
2.371 2.64697 2.91443 1.75639 1.87857 1.8563 2.00248 1.99133 1.97796 
2.12437 2.12437 2.12437 2.12437 2.24087 2.25101 2.26308 2.27767 2.29565 
2.34943 2.36803 2.38991 2.41597 2.44752 2.48639 2.44857 2.47368 2.50281 
2.53694 2.57738 2.62586 2.68474 2.53778 2.56754 2.60157 2.64076 2.68621 
2.73933 2.80184 2.87583 1.6744 1.6744 1.78405 1.6744 1.78405 1.89748 
1.6744 1.78405 1.89748 2.01191 1.6744 1.78405 1.89748 2.01191 2.12437 
1.6744 1.78405 1.89748 2.01191 2.12437 2.23222 1.6744 1.78405 1.89748 
2.01191 2.12437 2.23222 2.33343 1.6744 1.78405 1.89748 2.01191 2.12437 
2.23222 2.33343 2.42672 1.4672 1.35755 1.4672 1.24411 1.35755 1.4672 
1.12969 1.24411 1.35755 1.4672 1.01722 1.12969 1.24411 1.35755 1.4672 
0.909371 1.01722 1.12969 1.24411 1.35755 1.4672 0.808166 0.909371 1.01722 
1.12969 1.24411 1.35755 1.4672 0.714871 0.808166 0.909371 1.01722 1.12969 
1.24411 1.35755 1.4672 0.603812 0.57405 0.693022 0.540021 0.667908 0.792164 
0.500837 0.638778 0.773562 0.900726 0.455383 0.604649 0.751687 0.890581 1.01722 
0.402264 0.564217 0.725619 0.878514 1.01722 1.13912 0.339753 0.515737 0.694072 
0.863926 1.01722 1.15026 1.26302 0.265762 0.456853 0.655207 0.845941 1.01722 
1.16363 1.28529 1.38521 0.227158 0.312971 0.494626 0.494626 0.680215 0.770593 
1.01722 1.01722 1.01722 1.01722 2.12437 1.5708 1.36763 1.27109 1.2157 
2.64697 2.12437 1.77397 1.5708 1.44781 1.36763 2.82862 2.46138 2.12437 
1.8705 1.69378 1.5708 1.48273 2.91443 2.64697 2.371 2.12437 1.9259 
1.77397 1.65886 1.5708 1.75639 1.8563 1.87857 1.97796 1.99133 2.00248 
2.12437 2.12437 2.12437 2.12437 2.29565 2.27767 2.26308 2.25101 2.24087 
2.48639 2.44752 2.41597 2.38991 2.36803 2.34943 2.68474 2.62586 2.57738 
2.53694 2.50281 2.47368 2.44857 2.87583 2.80184 2.73933 2.68621 2.64076 
2.60157 2.56754 2.53778 5.86049 5.90139 5.97231 5.94739 6.02165 6.09275 
5.99927 6.07676 6.15015 6.21902 6.0579 6.13831 6.2135 0 0.0641696 
6.12418 6.20694 6.28319 0.069689 0.13304 0.190437 6.19903 0 0.0762451 
0.144876 0.206423 0.261531 0.310872 0 0.0841597 0.159004 0.225289 0.283913 
0.335793 0.381792 0.422692 5.86049 5.97231 5.90139 6.09275 6.02165 5.94739 
6.21902 6.15015 6.07676 5.99927 0.0641696 0 6.2135 6.13831 6.0579 
0.190437 0.13304 0.069689 6.28319 6.20694 6.12418 0.310872 0.261531 0.206423 
0.144876 0.0762451 6.28319 6.19903 0.422692 0.381792 0.335793 0.283913 0.225289 
0.159004 0.0841597 0 5.67937 5.70914 5.59016 5.74316 5.61528 5.49102 
5.78235 5.64441 5.50962 5.38246 5.8278 5.67854 5.5315 5.3926 5.26596 
5.88092 5.71897 5.55757 5.40467 5.26596 5.14407 5.94343 5.76745 5.58911 
5.41926 5.26596 5.13292 5.02016 6.01742 5.82633 5.62798 5.43724 5.26596 
5.11955 4.99789 4.89798 1.38521 1.28529 1.26302 1.16363 1.15026 1.13912 
1.01722 1.01722 1.01722 1.01722 0.845941 0.863926 0.878514 0.890581 0.900726 
0.655207 0.694072 0.725619 0.751687 0.773562 0.792164 0.456853 0.515737 0.564217 
0.604649 0.638778 0.667908 0.693022 0.265762 0.339753 0.402264 0.455383 0.500837 
0.540021 0.57405 0.603812 
