# vtk DataFile Version 4.1
vtk output
ASCII
DATASET POLYDATA
POINTS 1002 float
46.08 95.7696 95.7117 50.2879 99.1374 104.27 42.7713 103.464 94.7847 
45.0356 106.348 103.93 52.955 102.36 98.6902 50.9051 106.114 97.2284 
40.9262 95.7427 103.595 37.6211 101.33 102.601 55.8275 104.902 106.297 
47.9908 101.081 89.9678 44.8437 101.642 108.88 41.9955 97.6867 95.291 
46.0297 96.7321 96.3475 46.0839 97.6393 97.279 46.2454 98.4167 98.3587 
46.4058 99.1655 99.4132 46.562 99.8323 100.503 46.878 100.261 101.667 
47.55 100.295 102.662 48.5523 99.9183 103.278 49.5184 99.4446 103.738 
46.2487 96.7263 95.7899 46.6863 97.6789 96.0085 47.2728 98.5668 96.339 
47.8733 99.4256 96.6665 48.5467 100.221 96.9696 49.3727 100.908 97.3621 
50.1888 101.525 97.8366 50.9858 102 98.2406 51.9441 102.239 98.5151 
45.9635 95.4877 96.0738 45.7786 95.4633 96.569 45.4598 95.6001 97.274 
45.042 95.8141 98.151 44.5154 95.996 99.112 43.791 96.1369 100.156 
42.9991 96.0868 101.231 42.2056 95.9547 102.217 41.5165 95.7845 103.008 
46.2359 95.4837 95.22 46.4304 95.5778 94.7182 46.7392 95.9577 94.1426 
47.1113 96.5276 93.3812 47.5266 97.0977 92.5395 47.9025 97.7396 91.8129 
48.0748 98.5424 91.2209 48.0554 99.4353 90.7292 47.9942 100.32 90.3243 
46.223 94.3005 95.4527 46.4183 92.6495 95.2401 46.2646 91.6603 94.9633 
45.6912 92.1852 94.7056 45.136 93.6812 94.6438 44.6459 95.0448 94.7418 
43.9783 95.9898 94.8628 43.2193 96.707 94.9596 42.5445 97.2661 95.0869 
50.7921 99.4292 103.933 51.2543 99.8208 103.625 51.6566 100.316 103.36 
52.0157 100.823 102.96 52.2984 101.248 102.374 52.4537 101.65 101.745 
52.5354 102.03 101.082 52.63 102.282 100.303 52.7809 102.373 99.4856 
49.2609 99.0631 104.257 48.1473 98.9465 104.184 47.0425 98.7578 104.106 
45.9614 98.5162 104.121 44.9724 98.0956 104.149 44.1354 97.4782 104.112 
43.3014 96.8919 104.014 42.4906 96.4538 103.897 41.6763 96.071 103.799 
51.2649 99.1828 104.691 52.2414 99.3766 105.129 53.1943 99.7165 105.532 
54.0686 100.202 105.906 54.7633 100.841 106.234 55.3057 101.575 106.441 
55.7386 102.383 106.541 55.9826 103.293 106.564 56.0073 104.193 106.498 
50.2832 98.9894 104.916 50.1122 99.0162 105.623 49.7593 99.1998 106.349 
49.2608 99.4535 107 48.642 99.7813 107.581 47.9067 100.169 108.064 
47.118 100.53 108.471 46.3322 100.848 108.785 45.5638 101.23 108.911 
42.9013 103.753 95.6708 43.0281 104.069 96.613 43.1197 104.482 97.551 
43.2136 104.977 98.5192 43.3557 105.468 99.4832 43.5301 105.92 100.446 
43.7127 106.311 101.436 43.9964 106.511 102.413 44.4787 106.476 103.248 
43.3123 103.747 94.6616 43.9258 104.038 94.6321 44.604 104.371 94.6919 
45.3779 104.727 94.8616 46.1885 105.067 95.131 47.0503 105.369 95.4675 
48.0155 105.629 95.8722 49.0452 105.831 96.3238 50.0157 105.997 96.7752 
42.3221 103.333 95.5137 41.808 103.179 96.2935 41.2499 102.987 97.0983 
40.6796 102.736 97.995 40.0053 102.501 98.8667 39.2477 102.336 99.6018 
38.5643 102.17 100.27 38.1119 101.912 101.046 37.8171 101.609 101.857 
42.9873 103.326 93.8394 43.2651 103.185 92.8679 43.5896 103.077 91.8488 
43.8649 103.052 90.688 44.2358 103.009 89.6683 44.9374 102.835 89.1553 
45.8934 102.487 89.1566 46.7987 102.035 89.4004 47.4722 101.56 89.6678 
42.3944 103.04 94.4005 42.0448 102.515 94.0857 41.7049 101.942 93.8331 
41.308 101.355 93.6156 40.9375 100.64 93.5226 40.8009 99.8034 93.6964 
40.9829 99.0576 94.1204 41.3535 98.5221 94.6163 41.7157 98.0964 95.0092 
45.5854 106.53 103.416 46.209 106.716 102.873 46.92 106.879 102.214 
47.693 106.915 101.425 48.4639 106.783 100.618 49.1814 106.597 99.9233 
49.7762 106.436 99.2792 50.2431 106.334 98.5629 50.6171 106.232 97.8549 
44.1545 106.211 104.041 43.257 105.944 104.124 42.405 105.536 104.131 
41.5475 105.041 104.045 40.6969 104.478 103.893 39.9508 103.832 103.694 
39.3013 103.157 103.458 38.6687 102.503 103.19 38.1037 101.883 102.87 
45.9775 106.317 104.251 46.9906 106.297 104.598 48.1146 106.224 104.927 
49.4201 106.028 105.172 50.7794 105.88 105.417 52.0784 105.867 105.746 
53.3183 105.828 106.067 54.3904 105.665 106.269 55.242 105.35 106.342 
45.0616 106.139 104.646 45.0742 105.878 105.384 45.063 105.549 106.086 
45.0237 105.167 106.735 44.9615 104.674 107.336 44.9084 104.087 107.845 
44.8835 103.509 108.268 44.8589 102.939 108.613 44.8237 102.317 108.83 
53.6118 102.431 98.2491 54.0968 102.657 97.7374 54.3695 103.108 97.2611 
54.418 103.781 96.9806 54.1851 104.534 96.943 53.6733 105.141 97.0397 
53.0386 105.533 97.13 52.3742 105.816 97.1596 51.6474 106.026 97.1695 
53.784 102.5 99.3708 54.4739 102.716 100.186 55.0968 102.971 101.034 
55.8074 103.171 101.808 56.6001 103.302 102.552 57.118 103.546 103.426 
57.1137 103.946 104.387 56.7979 104.335 105.21 56.3682 104.65 105.854 
52.4935 102.221 97.8146 51.9826 102.036 96.8741 51.4851 101.779 95.8075 
51.0399 101.452 94.6759 50.601 101.194 93.562 50.1637 101.072 92.4187 
49.7486 101.026 91.3355 49.3304 100.999 90.5254 48.7282 101.028 90.1503 
51.6816 106.335 97.9892 52.556 106.582 98.746 53.4712 106.754 99.5464 
54.2658 106.839 100.562 54.9558 106.857 101.815 55.5379 106.713 103.062 
55.8623 106.33 104.113 55.9652 105.855 104.999 55.9406 105.366 105.741 
50.6127 105.9 96.3614 50.2591 105.627 95.4315 49.884 105.269 94.3898 
49.4787 104.8 93.3106 49.0628 104.249 92.3377 48.7735 103.67 91.3786 
48.6755 103.086 90.4685 48.6277 102.471 89.8594 48.4322 101.792 89.7339 
40.0624 95.616 103.708 39.1257 95.7194 103.77 38.2695 96.0779 103.783 
37.5965 96.5824 103.756 37.1199 97.2755 103.708 36.8567 98.2446 103.618 
36.8297 99.3136 103.428 37.0022 100.205 103.153 37.2912 100.84 102.865 
40.8225 96.0263 104.225 40.7923 96.4784 104.855 40.9076 96.9777 105.572 
41.1525 97.5133 106.346 41.5368 98.1448 107.011 42.1121 98.8928 107.529 
42.8215 99.6514 107.973 43.5387 100.356 108.359 44.207 101.004 108.668 
40.5442 95.4629 102.951 40.1848 95.3543 102.13 39.9634 95.5324 101.17 
40.0969 95.9165 100.199 40.5119 96.288 99.2859 40.9915 96.6166 98.4205 
41.4011 96.8929 97.546 41.6853 97.1396 96.7009 41.8921 97.4108 95.9519 
37.807 101.401 103.443 38.1269 101.44 104.289 38.5861 101.432 105.167 
39.1419 101.419 106.053 39.791 101.468 106.845 40.5971 101.56 107.515 
41.564 101.646 108.037 42.6228 101.695 108.397 43.745 101.68 108.656 
37.3491 100.952 101.839 37.1815 100.491 100.952 37.1488 99.9487 100.021 
37.3153 99.3685 99.137 37.7875 98.8229 98.382 38.5793 98.3864 97.7652 
39.5543 98.1142 97.2104 40.5377 97.9798 96.609 41.3641 97.8468 95.9463 
55.2871 104.729 106.806 54.4694 104.486 107.228 53.458 104.177 107.617 
52.3714 103.847 108.005 51.1728 103.518 108.344 49.8066 103.183 108.644 
48.4166 102.827 108.948 47.127 102.423 109.098 45.9341 102.018 109.061 
47.1514 100.696 90.1094 46.2376 100.258 90.3545 45.4292 99.77 90.6268 
44.5891 99.1454 90.9212 43.6584 98.4816 91.2077 42.9978 98.0053 91.7089 
42.7542 97.8151 92.5565 42.6273 97.7735 93.5614 42.3623 97.7363 94.4691 
46.358 97.5856 96.5909 46.9226 98.4114 96.9462 46.581 98.3549 97.6274 
47.5819 99.2047 97.3255 47.259 99.0725 98.0127 46.8376 99.0804 98.7169 
48.3004 99.94 97.6712 48.005 99.7539 98.3913 47.6066 99.7087 99.1233 
47.0462 99.805 99.8134 49.1541 100.628 98.0593 48.8867 100.355 98.8053 
48.4834 100.275 99.5879 47.9028 100.353 100.32 47.3147 100.383 100.995 
50.0215 101.33 98.5423 49.8368 101.019 99.2953 49.4781 100.829 100.077 
48.9518 100.799 100.837 48.3923 100.74 101.521 47.9458 100.551 102.116 
50.8178 101.947 98.9886 50.728 101.678 99.756 50.5063 101.395 100.516 
50.1019 101.213 101.261 49.6685 100.984 101.951 49.3061 100.629 102.474 
48.9527 100.256 102.885 51.7396 102.256 99.2859 51.6242 102.114 100.091 
51.5191 101.804 100.842 51.3331 101.466 101.544 51.0251 101.134 102.222 
50.6895 100.715 102.79 50.3606 100.229 103.132 49.9695 99.7878 103.416 
46.4386 96.6542 95.244 46.7016 96.8455 94.6825 46.9597 97.6994 95.4048 
47.0702 97.2491 94.0255 47.2976 97.9223 94.7634 47.5815 98.682 95.6817 
47.5601 97.6516 93.2234 47.6791 98.2733 94.0464 47.9215 98.9091 94.9538 
48.1478 99.639 95.952 48.1393 98.0318 92.4014 48.1959 98.5978 93.2737 
48.3171 99.1978 94.2268 48.5237 99.8284 95.2141 48.8521 100.456 96.2732 
48.5974 98.5521 91.657 48.8031 98.8924 92.4726 48.8715 99.4274 93.4975 
49.0213 99.9934 94.5214 49.3048 100.579 95.5891 49.7091 101.111 96.7301 
48.7798 99.2994 91.0134 49.2081 99.3883 91.6728 49.4287 99.692 92.6996 
49.6198 100.129 93.8216 49.8774 100.645 94.9028 50.1996 101.174 96.0586 
50.5704 101.631 97.203 48.7957 100.172 90.5033 49.3369 100.154 91.0031 
49.7031 100.255 91.9224 50.0378 100.455 93.0725 50.3916 100.783 94.2099 
50.7285 101.231 95.3489 51.0938 101.651 96.511 51.4896 102.001 97.5757 
49.0692 101.788 90.1363 49.2044 102.501 90.5994 49.5807 101.819 90.8618 
49.3216 103.165 91.4053 49.8157 102.575 91.5369 50.084 101.846 91.8645 
49.581 103.816 92.3284 50.1315 103.299 92.3731 50.4897 102.637 92.5875 
50.6084 101.864 93.006 50.0058 104.437 93.2522 50.5779 104.002 93.2344 
51.0119 103.414 93.3697 51.1476 102.668 93.7129 51.1408 101.949 94.1665 
50.4619 104.956 94.3026 51.0596 104.595 94.2398 51.5843 104.119 94.2902 
51.8195 103.437 94.5375 51.82 102.697 94.9028 51.7293 102.125 95.3257 
50.8866 105.373 95.3715 51.5016 105.057 95.3355 52.1019 104.679 95.3373 
52.5315 104.098 95.4459 52.6823 103.349 95.6646 52.6421 102.685 95.9813 
52.417 102.257 96.4022 51.2874 105.718 96.3275 51.9385 105.447 96.3212 
52.5721 105.129 96.3015 53.1539 104.656 96.28 53.5245 103.946 96.3156 
53.6258 103.192 96.4927 53.4861 102.635 96.8573 53.0899 102.338 97.3406 
54.3378 102.709 98.9382 54.7368 103.089 98.4098 54.8851 103.116 99.8081 
54.9972 103.664 97.9186 55.2131 103.661 99.3098 55.3838 103.554 100.734 
55.0318 104.388 97.6714 55.5007 104.295 98.8324 55.6874 104.195 100.29 
56.0331 103.867 101.567 54.6899 105.102 97.7052 55.4803 104.997 98.5945 
55.8909 104.868 99.8484 56.1863 104.626 101.206 56.6646 104.149 102.407 
54.0747 105.641 97.843 55.0279 105.669 98.6055 55.6906 105.603 99.6116 
56.1271 105.441 100.873 56.5542 105.091 102.201 56.9264 104.554 103.425 
[...]
POINT_DATA 1002
SCALARS Color_Map_Phi float
LOOKUP_TABLE default
6.28319 3.14159 6.28319 3.14159 4.71239 4.71239 1.5708 1.5708 3.69517 
5.72961 2.58802 0.553574 6.28319 6.28319 6.28319 6.28319 3.14159 3.14159 
3.14159 3.14159 3.14159 6.1053 5.8988 5.67687 5.45995 5.26596 5.10322 
4.97131 4.86569 4.78095 0.177881 0.384387 0.606312 0.823235 1.01722 1.17997 
1.31187 1.4175 1.50223 6.18928 6.10703 6.03531 5.97283 5.91832 5.87061 
5.82869 5.79168 5.75886 0.0939024 0.176153 0.247873 0.310351 0.364864 0.412573 
0.454497 0.491504 0.524326 3.31947 3.52598 3.7479 3.96483 4.15881 4.32156 
4.45346 4.55909 4.64383 2.96371 2.75721 2.53528 2.31836 2.12437 1.96162 
1.82972 1.72409 1.63936 3.2355 3.31775 3.38947 3.45194 3.50646 3.55417 
3.59609 3.6331 3.66592 3.04769 2.96544 2.89372 2.83124 2.77673 2.72902 
2.6871 2.65009 2.61727 6.28319 6.28319 6.28319 6.28319 3.14159 3.14159 
3.14159 3.14159 3.14159 6.1053 5.8988 5.67687 5.45995 5.26596 5.10322 
4.97131 4.86569 4.78095 0.177881 0.384387 0.606312 0.823235 1.01722 1.17997 
1.31187 1.4175 1.50223 6.18928 6.10703 6.03531 5.97283 5.91832 5.87061 
5.82869 5.79168 5.75886 0.0939024 0.176153 0.247873 0.310351 0.364864 0.412573 
0.454497 0.491504 0.524326 3.31947 3.52598 3.7479 3.96483 4.15881 4.32156 
4.45346 4.55909 4.64383 2.96371 2.75721 2.53528 2.31836 2.12437 1.96162 
1.82972 1.72409 1.63936 3.2355 3.31775 3.38947 3.45194 3.50646 3.55417 
3.59609 3.6331 3.66592 3.04769 2.96544 2.89372 2.83124 2.77673 2.72902 
2.6871 2.65009 2.61727 4.71239 4.71239 4.71239 4.71239 4.71239 4.71239 
4.71239 4.71239 4.71239 4.60879 4.49914 4.3857 4.27128 4.15881 4.05096 
3.94976 3.85646 3.77161 4.81599 4.92564 5.03907 5.1535 5.26596 5.37381 
5.47502 5.56831 5.65317 4.60879 4.49914 4.3857 4.27128 4.15881 4.05096 
3.94976 3.85646 3.77161 4.81599 4.92564 5.03907 5.1535 5.26596 5.37381 
5.47502 5.56831 5.65317 1.5708 1.5708 1.5708 1.5708 1.5708 1.5708 
1.5708 1.5708 1.5708 1.6744 1.78405 1.89748 2.01191 2.12437 2.23222 
2.33343 2.42672 2.51157 1.4672 1.35755 1.24411 1.12969 1.01722 0.909371 
0.808166 0.714871 0.63002 1.6744 1.78405 1.89748 2.01191 2.12437 2.23222 
2.33343 2.42672 2.51157 1.4672 1.35755 1.24411 1.12969 1.01722 0.909371 
0.808166 0.714871 0.63002 3.60077 3.49669 3.38395 3.26458 3.14159 3.01861 
2.89924 2.78649 2.68241 5.82401 5.92808 6.04083 6.1602 6.28319 0.122983 
0.242354 0.355101 0.459179 6.05603 5.78856 5.97021 5.51259 5.60297 5.78856 
5.26596 5.26596 5.26596 5.26596 5.06749 5.0121 4.91556 4.71239 4.15881 
4.91556 4.83537 4.71239 4.50922 4.15881 3.63622 4.80045 4.71239 4.58941 
4.41268 4.15881 3.82181 3.45456 4.71239 4.62433 4.50922 4.35729 4.15881 
3.91219 3.63622 3.36875 6.01742 5.94343 5.82633 5.88092 5.76745 5.62798 
5.8278 5.71897 5.58911 5.43724 5.78235 5.67854 5.55757 5.41926 5.26596 
5.74316 5.64441 5.5315 5.40467 5.26596 5.11955 5.70914 5.61528 5.50962 
5.3926 5.26596 5.13292 4.99789 5.67937 5.59016 5.49102 5.38246 5.26596 
5.14407 5.02016 4.89798 5.56831 5.47502 5.47502 5.37381 5.37381 5.37381 
5.26596 5.26596 5.26596 5.26596 5.1535 5.1535 5.1535 5.1535 5.1535 
5.03907 5.03907 5.03907 5.03907 5.03907 5.03907 4.92564 4.92564 4.92564 
4.92564 4.92564 4.92564 4.92564 4.81599 4.81599 4.81599 4.81599 4.81599 
4.81599 4.81599 4.81599 4.60879 4.60879 4.49914 4.60879 4.49914 4.3857 
4.60879 4.49914 4.3857 4.27128 4.60879 4.49914 4.3857 4.27128 4.15881 
4.60879 4.49914 4.3857 4.27128 4.15881 4.05096 4.60879 4.49914 4.3857 
4.27128 4.15881 4.05096 3.94976 4.60879 4.49914 4.3857 4.27128 4.15881 
4.05096 3.94976 3.85646 4.5268 4.40462 4.42689 4.28071 4.29185 4.30523 
4.15881 4.15881 4.15881 4.15881 4.04232 4.03217 4.02011 4.00552 3.98753 
3.93376 3.91515 3.89328 3.86721 3.83566 3.7968 3.83461 3.8095 3.78037 
3.74624 3.70581 3.65733 3.59845 3.7454 3.71564 3.68161 3.64243 3.59698 
3.54386 3.48135 3.40735 3.56428 3.45246 3.52338 3.33203 3.40312 3.47739 
3.20576 3.27463 3.34802 3.42551 3.07742 3.14159 3.21128 3.28647 3.36688 
2.95116 3.00855 3.0719 3.14159 3.21784 3.3006 2.83072 2.88006 2.93517 
2.99672 3.06535 3.14159 3.22575 2.7189 2.7598 2.8058 2.85768 2.9163 
2.98259 3.05743 3.14159 3.56428 3.52338 3.45246 3.47739 3.40312 3.33203 
3.42551 3.34802 3.27463 3.20576 3.36688 3.28647 3.21128 3.14159 3.07742 
3.3006 3.21784 3.14159 3.0719 3.00855 2.95116 3.22575 3.14159 3.06535 
2.99672 2.93517 2.88006 2.83072 3.14159 3.05743 2.98259 2.9163 2.85768 
2.8058 2.7598 2.7189 4.5268 4.42689 4.40462 4.30523 4.29185 4.28071 
4.15881 4.15881 4.15881 4.15881 3.98753 4.00552 4.02011 4.03217 4.04232 
3.7968 3.83566 3.86721 3.89328 3.91515 3.93376 3.59845 3.65733 3.70581 
3.74624 3.78037 3.8095 3.83461 3.40735 3.48135 3.54386 3.59698 3.64243 
3.68161 3.71564 3.7454 4.71239 4.80045 4.62433 4.91556 4.71239 4.50922 
5.06749 4.83537 4.58941 4.35729 5.26596 5.0121 4.71239 4.41268 4.15881 
5.51259 5.26596 4.91556 4.50922 4.15881 3.91219 5.78856 5.60297 5.26596 
4.71239 4.15881 3.82181 3.63622 6.05603 5.97021 5.78856 5.26596 4.15881 
3.63622 3.45456 3.36875 0.227158 0.494626 0.312971 0.770593 0.680215 0.494626 
1.01722 1.01722 1.01722 1.01722 1.2157 1.27109 1.36763 1.5708 2.12437 
1.36763 1.44781 1.5708 1.77397 2.12437 2.64697 1.48273 1.5708 1.69378 
1.8705 2.12437 2.46138 2.82862 1.5708 1.65886 1.77397 1.9259 2.12437 
2.371 2.64697 2.91443 1.75639 1.87857 1.8563 2.00248 1.99133 1.97796 
2.12437 2.12437 2.12437 2.12437 2.24087 2.25101 2.26308 2.27767 2.29565 
2.34943 2.36803 2.38991 2.41597 2.44752 2.48639 2.44857 2.47368 2.50281 
2.53694 2.57738 2.62586 2.68474 2.53778 2.56754 2.60157 2.64076 2.68621 
2.73933 2.80184 2.87583 1.6744 1.6744 1.78405 1.6744 1.78405 1.89748 
1.6744 1.78405 1.89748 2.01191 1.6744 1.78405 1.89748 2.01191 2.12437 
1.6744 1.78405 1.89748 2.01191 2.12437 2.23222 1.6744 1.78405 1.89748 
2.01191 2.12437 2.23222 2.33343 1.6744 1.78405 1.89748 2.01191 2.12437 
2.23222 2.33343 2.42672 1.4672 1.35755 1.4672 1.24411 1.35755 1.4672 
1.12969 1.24411 1.35755 1.4672 1.01722 1.12969 1.24411 1.35755 1.4672 
0.909371 1.01722 1.12969 1.24411 1.35755 1.4672 0.808166 0.909371 1.01722 
1.12969 1.24411 1.35755 1.4672 0.714871 0.808166 0.909371 1.01722 1.12969 
1.24411 1.35755 1.4672 0.603812 0.57405 0.693022 0.540021 0.667908 0.792164 
0.500837 0.638778 0.773562 0.900726 0.455383 0.604649 0.751687 0.890581 1.01722 
0.402264 0.564217 0.725619 0.878514 1.01722 1.13912 0.339753 0.515737 0.694072 
0.863926 1.01722 1.15026 1.26302 0.265762 0.456853 0.655207 0.845941 1.01722 
1.16363 1.28529 1.38521 0.227158 0.312971 0.494626 0.494626 0.680215 0.770593 
1.01722 1.01722 1.01722 1.01722 2.12437 1.5708 1.36763 1.27109 1.2157 
2.64697 2.12437 1.77397 1.5708 1.44781 1.36763 2.82862 2.46138 2.12437 
1.8705 1.69378 1.5708 1.48273 2.91443 2.64697 2.371 2.12437 1.9259 
1.77397 1.65886 1.5708 1.75639 1.8563 1.87857 1.97796 1.99133 2.00248 
2.12437 2.12437 2.12437 2.12437 2.29565 2.27767 2.26308 2.25101 2.24087 
2.48639 2.44752 2.41597 2.38991 2.36803 2.34943 2.68474 2.62586 2.57738 
2.53694 2.50281 2.47368 2.44857 2.87583 2.80184 2.73933 2.68621 2.64076 
2.60157 2.56754 2.53778 5.86049 5.90139 5.97231 5.94739 6.02165 6.09275 
5.99927 6.07676 6.15015 6.21902 6.0579 6.13831 6.2135 0 0.0641696 
6.12418 6.20694 6.28319 0.069689 0.13304 0.190437 6.19903 0 0.0762451 
0.144876 0.206423 0.261531 0.310872 0 0.0841597 0.159004 0.225289 0.283913 
0.335793 0.381792 0.422692 5.86049 5.97231 5.90139 6.09275 6.02165 5.94739 
6.21902 6.15015 6.07676 5.99927 0.0641696 0 6.2135 6.13831 6.0579 
0.190437 0.13304 0.069689 6.28319 6.20694 6.12418 0.310872 0.261531 0.206423 
0.144876 0.0762451 6.28319 6.19903 0.422692 0.381792 0.335793 0.283913 0.225289 
0.159004 0.0841597 0 5.67937 5.70914 5.59016 5.74316 5.61528 5.49102 
5.78235 5.64441 5.50962 5.38246 5.8278 5.67854 5.5315 5.3926 5.26596 
5.88092 5.71897 5.55757 5.40467 5.26596 5.14407 5.94343 5.76745 5.58911 
5.41926 5.26596 5.13292 5.02016 6.01742 5.82633 5.62798 5.43724 5.26596 
5.11955 4.99789 4.89798 1.38521 1.28529 1.26302 1.16363 1.15026 1.13912 
1.01722 1.01722 1.01722 1.01722 0.845941 0.863926 0.878514 0.890581 0.900726 
0.655207 0.694072 0.725619 0.751687 0.773562 0.792164 0.456853 0.515737 0.564217 
0.604649 0.638778 0.667908 0.693022 0.265762 0.339753 0.402264 0.455383 0.500837 
0.540021 0.57405 0.603812 
