# vtk DataFile Version 4.1
vtk output
ASCII
DATASET POLYDATA
POINTS 1002 float
46.7052 95.9953 95.9965 50.672 100.168 106.174 42.8624 103.479 94.2616 
45.6297 106.531 103.141 51.6288 101.798 97.5651 49.3344 106.212 95.2313 
42.7834 98.4325 104.534 39.6725 102.478 102.944 53.2932 106.333 105.774 
47.0784 100.187 90.5611 45.8048 103.303 110.403 41.6778 97.677 95.3073 
46.9402 96.7095 96.6976 47.1336 97.4636 97.5477 47.3208 98.2077 98.5154 
47.5471 98.945 99.6136 47.7966 99.5914 100.865 48.1866 99.9657 102.274 
48.7931 100.112 103.593 49.4681 100.178 104.651 50.1022 100.169 105.47 
47.1529 96.4088 95.9526 47.6308 96.9364 95.904 48.0784 97.5976 95.9123 
48.5206 98.3369 96.0013 48.9847 99.1067 96.1526 49.533 99.8095 96.3552 
50.1534 100.337 96.6427 50.7318 100.815 96.9707 51.2249 101.309 97.2715 
46.4095 96.1485 96.4938 46.092 96.4031 97.1287 45.723 96.7113 97.8823 
45.3138 97.06 98.733 44.8944 97.4286 99.669 44.4479 97.7429 100.725 
44.0349 97.931 101.833 43.6574 98.0844 102.832 43.2297 98.2736 103.698 
46.7498 95.5537 95.3474 46.9246 95.146 94.7243 47.2406 94.8887 94.0593 
47.4817 95.0398 93.3894 47.5132 95.6803 92.8022 47.4013 96.6116 92.3174 
47.2619 97.6329 91.8688 47.1895 98.5837 91.4298 47.1361 99.4279 90.9736 
46.293 95.3345 95.6833 45.9716 94.4943 95.4874 45.5973 93.6204 95.3802 
44.9488 93.2082 95.2592 44.2274 93.6054 95.1169 43.7158 94.5013 95.0194 
43.2556 95.4678 94.987 42.6875 96.3221 95.0289 42.1476 97.0425 95.1519 
50.8797 100.506 105.657 51.1017 100.792 105.043 51.3362 100.983 104.252 
51.527 101.164 103.357 51.6173 101.392 102.445 51.5589 101.641 101.433 
51.5255 101.757 100.343 51.6065 101.749 99.3257 51.696 101.716 98.3996 
50.0401 99.8767 106.263 49.27 99.6422 106.328 48.4145 99.4155 106.353 
47.53 99.1932 106.321 46.5776 99.037 106.186 45.6363 98.8801 105.995 
44.8666 98.6321 105.785 44.1745 98.4054 105.496 43.4254 98.3634 105.04 
51.3772 100.381 106.537 52.1384 100.656 106.87 52.8546 101.1 107.102 
53.4865 101.709 107.221 53.9526 102.505 107.248 54.1997 103.496 107.181 
54.1558 104.459 106.941 53.8627 105.169 106.595 53.5474 105.769 106.186 
50.7927 100.014 106.955 50.7248 100.051 107.817 50.4397 100.265 108.598 
50.0074 100.551 109.247 49.5187 100.895 109.862 48.9797 101.307 110.319 
48.2844 101.815 110.476 47.4088 102.418 110.504 46.5218 102.953 110.5 
42.9993 103.812 94.9416 43.188 104.143 95.741 43.4217 104.5 96.6383 
43.6445 104.927 97.565 43.8615 105.417 98.4891 44.1217 105.86 99.5289 
44.434 106.175 100.622 44.8027 106.367 101.576 45.2133 106.487 102.401 
43.4085 103.741 94.002 44.0389 103.987 93.7886 44.7105 104.261 93.6365 
45.3845 104.576 93.554 46.0693 104.911 93.5683 46.7494 105.257 93.7035 
47.4068 105.588 93.9471 48.0753 105.871 94.2885 48.7438 106.083 94.738 
42.4046 103.407 94.9495 41.8753 103.353 95.6992 41.3112 103.321 96.5085 
40.7695 103.269 97.3689 40.2446 103.227 98.2596 39.7987 103.192 99.2421 
39.5447 103.106 100.278 39.502 102.913 101.243 39.5721 102.671 102.119 
43.0614 103.298 93.4211 43.2989 103.059 92.536 43.5762 102.806 91.6403 
43.8184 102.546 90.7136 44.0541 102.207 89.8823 44.5409 101.811 89.5771 
45.3072 101.451 89.8577 46.0253 101.082 90.1813 46.5864 100.637 90.3423 
42.4624 103.081 94.0464 42.0337 102.619 93.8836 41.59 102.074 93.7953 
41.1789 101.442 93.7489 40.913 100.706 93.8163 40.8523 99.9068 94.0534 
40.9291 99.1708 94.3647 41.1439 98.6192 94.6882 41.4251 98.1221 95.0122 
45.93 106.784 102.564 46.2801 107.028 101.905 46.6051 107.272 101.051 
46.9333 107.456 100.028 47.37 107.49 99.0227 47.8466 107.396 98.0934 
48.2709 107.192 97.2384 48.6721 106.899 96.4691 49.0397 106.561 95.8026 
45.0661 106.244 103.289 44.4309 105.926 103.481 43.7168 105.59 103.676 
42.9436 105.228 103.783 42.1594 104.839 103.783 41.4752 104.406 103.686 
40.9097 103.922 103.541 40.4093 103.425 103.382 39.9877 102.947 103.195 
46.2616 106.679 103.526 47.0009 106.813 103.914 47.7998 106.99 104.303 
48.6011 107.196 104.695 49.4555 107.364 105.098 50.4346 107.447 105.495 
51.4617 107.391 105.761 52.3425 107.182 105.84 52.9231 106.815 105.822 
45.7252 106.352 104.006 45.7747 106.19 104.959 45.7529 106.064 105.958 
45.75 105.871 106.959 45.7429 105.644 107.901 45.6997 105.334 108.709 
45.6944 104.874 109.362 45.7167 104.354 109.837 45.7658 103.852 110.171 
51.7545 102.192 97.2265 51.8224 102.674 96.855 51.8419 103.234 96.4619 
51.7328 103.881 96.1003 51.4943 104.506 95.8067 51.1883 105.039 95.5601 
50.7879 105.473 95.3761 50.3004 105.795 95.2777 49.8069 106.033 95.2358 
52.1085 102.182 98.3349 52.6115 102.584 99.059 53.0675 103.075 99.824 
53.3813 103.646 100.831 53.5633 104.262 101.925 53.7974 104.88 102.84 
53.9659 105.407 103.672 53.9134 105.804 104.485 53.649 106.088 105.22 
51.329 101.553 96.5059 51.1286 101.205 95.3511 50.9496 100.82 94.2258 
50.6335 100.488 93.1593 50.3665 100.171 92.0658 50.1051 99.9367 91.1118 
49.4876 99.9545 90.6573 48.6267 100.111 90.6035 47.8059 100.186 90.594 
49.7431 106.521 96.1004 50.1929 106.81 97.0788 50.6463 107.054 98.1625 
51.1307 107.232 99.2852 51.6395 107.297 100.448 52.1518 107.269 101.655 
52.663 107.194 102.86 53.0907 107.04 104.001 53.2697 106.717 104.988 
49.2339 105.798 94.318 49.1558 105.352 93.277 49.0891 104.84 92.2087 
49.0668 104.328 91.0576 49.1075 103.872 89.8911 49.0541 103.293 89.2107 
48.6793 102.501 89.3193 48.0641 101.689 89.8143 47.5086 100.929 90.2286 
42.1797 98.6103 104.724 41.6097 98.8008 104.919 40.9998 99.0251 105.055 
40.3741 99.3421 105.046 39.8898 99.7619 104.877 39.6126 100.302 104.611 
39.4729 100.984 104.242 39.4662 101.607 103.775 39.5584 102.075 103.321 
42.718 98.449 105.734 42.7646 98.4533 106.898 42.9163 98.7847 107.757 
43.1643 99.3805 108.445 43.4866 99.9481 109.105 43.8067 100.5 109.709 
44.1254 101.173 110.202 44.5854 101.875 110.478 45.1836 102.593 110.51 
42.4936 98.3727 103.584 42.1836 98.189 102.693 41.7808 97.9306 101.752 
41.4129 97.687 100.715 41.2282 97.5599 99.6817 41.2088 97.4906 98.6014 
41.2894 97.423 97.5065 41.429 97.4308 96.6037 41.5788 97.5471 95.9299 
39.8956 102.627 104.038 40.138 102.765 105.24 40.4378 102.936 106.392 
40.8712 103.093 107.422 41.461 103.18 108.348 42.1843 103.224 109.089 
42.9996 103.241 109.647 43.8912 103.213 110.056 44.838 103.221 110.292 
39.3202 102.035 102.141 38.8409 101.567 101.358 38.3638 101.126 100.598 
38.2187 100.552 99.7433 38.3807 99.7987 98.7843 38.7493 99.1635 97.8804 
39.447 98.8046 97.1413 40.3254 98.5377 96.4931 41.1095 98.1618 95.8889 
53.0339 106.241 106.502 52.6672 106.121 107.22 52.1609 105.97 107.955 
51.5417 105.741 108.649 50.8267 105.391 109.197 49.9369 104.952 109.661 
48.9021 104.538 110.068 47.846 104.179 110.303 46.8097 103.786 110.361 
46.3803 99.7045 90.7513 45.6584 99.1951 91.0225 45.006 98.5845 91.2829 
44.2891 97.927 91.4631 43.5056 97.3853 91.7061 42.9323 97.1048 92.231 
42.6746 97.0795 92.9944 42.4148 97.2253 93.7942 42.0548 97.4385 94.5721 
47.3817 97.1585 96.7005 47.822 97.7464 96.7335 47.5608 97.9614 97.6174 
48.2525 98.4369 96.8355 48.0198 98.5678 97.7395 47.7987 98.7206 98.6643 
48.7273 99.1661 97.0028 48.5077 99.2664 97.923 48.3113 99.3371 98.8808 
48.0707 99.4566 99.8816 49.3014 99.8286 97.2172 49.1038 99.875 98.1528 
48.8714 99.9727 99.1455 48.6361 100.019 100.219 48.3985 100.028 101.295 
49.9288 100.398 97.5012 49.7657 100.406 98.4546 49.5362 100.47 99.5029 
49.2883 100.522 100.614 49.1222 100.428 101.715 48.9597 100.259 102.728 
50.5305 100.903 97.8502 50.3777 100.958 98.8014 50.2482 100.94 99.881 
50.0695 100.911 101.016 49.9549 100.767 102.057 49.8386 100.548 103.032 
49.6611 100.347 103.916 51.1283 101.339 98.1615 50.9639 101.433 99.1088 
50.8798 101.425 100.162 50.8625 101.287 101.291 50.8266 101.072 102.308 
50.7154 100.861 103.229 50.5236 100.662 104.101 50.3005 100.45 104.854 
47.2363 96.0733 95.2699 47.4101 95.8212 94.5825 47.7465 96.7193 95.1886 
47.7716 95.7071 93.8033 47.9628 96.6171 94.4375 48.2719 97.4687 95.1578 
48.1281 95.8997 93.0502 48.3576 96.6109 93.618 48.5232 97.465 94.3864 
48.7657 98.2866 95.2278 48.2446 96.5271 92.4339 48.7717 96.828 92.8346 
48.8901 97.5502 93.5867 49.0092 98.3661 94.4538 49.2655 99.1384 95.3527 
48.1092 97.4689 91.8965 48.9238 97.4217 92.1022 49.3191 97.7902 92.7439 
49.3716 98.5051 93.6574 49.5816 99.223 94.5753 49.8801 99.8295 95.5655 
47.9513 98.4683 91.4333 48.8227 98.2975 91.4367 49.5597 98.3204 91.8511 
49.7998 98.7581 92.7552 49.9582 99.3488 93.7773 50.2355 99.8949 94.7916 
50.4923 100.382 95.8574 47.8706 99.3792 91.0126 48.7081 99.2353 90.9743 
49.5865 99.0892 91.1033 50.0665 99.2423 91.8213 50.2544 99.6442 92.8952 
50.517 100.083 93.9847 50.7767 100.522 95.0587 50.9805 100.945 96.1717 
48.3417 100.952 90.1903 49.0057 101.742 89.71 49.2397 100.868 90.204 
49.5741 102.598 89.3855 49.8247 101.725 89.893 49.9634 100.793 90.5403 
49.6851 103.371 89.8127 50.0442 102.65 90.1315 50.2193 101.776 90.7539 
50.3279 100.902 91.3957 49.5825 103.949 90.902 49.9882 103.432 91.0142 
50.2649 102.718 91.4654 50.4699 101.909 91.9816 50.6235 101.119 92.5035 
49.5852 104.508 92.1115 50.0067 104.089 92.1529 50.3434 103.501 92.423 
50.6319 102.779 92.7872 50.9021 102.034 93.1105 51.0223 101.35 93.5938 
49.666 105.083 93.2131 50.1463 104.728 93.2381 50.5339 104.23 93.3999 
50.8204 103.583 93.671 51.105 102.883 93.9321 51.3065 102.218 94.2719 
51.2795 101.654 94.784 49.7329 105.585 94.2724 50.2428 105.3 94.2871 
50.6999 104.901 94.3939 51.0206 104.364 94.6146 51.2677 103.73 94.8939 
51.479 103.07 95.2173 51.5321 102.479 95.6212 51.4473 101.979 96.0707 
52.2088 102.652 97.9941 52.2616 103.229 97.6081 52.7009 103.152 98.6865 
52.2635 103.916 97.2204 52.7586 103.858 98.3067 53.1437 103.738 99.4955 
52.0647 104.621 96.9292 52.6666 104.654 98.0188 53.1092 104.552 99.2199 
53.4004 104.386 100.55 51.7102 105.206 96.6971 52.3112 105.337 97.8306 
52.8438 105.357 99.0195 53.2575 105.253 100.274 53.5541 105.081 101.571 
51.2895 105.691 96.4677 51.8564 105.868 97.613 52.3991 105.949 98.8257 
52.9145 105.979 100.032 53.3739 105.933 101.23 53.719 105.732 102.478 
[...]
POINT_DATA 1002
SCALARS Color_Map_Phi float
LOOKUP_TABLE default
6.28319 3.14159 6.28319 3.14159 4.71239 4.71239 1.5708 1.5708 3.69517 
5.72961 2.58802 0.553574 6.28319 6.28319 6.28319 6.28319 3.14159 3.14159 
3.14159 3.14159 3.14159 6.1053 5.8988 5.67687 5.45995 5.26596 5.10322 
4.97131 4.86569 4.78095 0.177881 0.384387 0.606312 0.823235 1.01722 1.17997 
1.31187 1.4175 1.50223 6.18928 6.10703 6.03531 5.97283 5.91832 5.87061 
5.82869 5.79168 5.75886 0.0939024 0.176153 0.247873 0.310351 0.364864 0.412573 
0.454497 0.491504 0.524326 3.31947 3.52598 3.7479 3.96483 4.15881 4.32156 
4.45346 4.55909 4.64383 2.96371 2.75721 2.53528 2.31836 2.12437 1.96162 
1.82972 1.72409 1.63936 3.2355 3.31775 3.38947 3.45194 3.50646 3.55417 
3.59609 3.6331 3.66592 3.04769 2.96544 2.89372 2.83124 2.77673 2.72902 
2.6871 2.65009 2.61727 6.28319 6.28319 6.28319 6.28319 3.14159 3.14159 
3.14159 3.14159 3.14159 6.1053 5.8988 5.67687 5.45995 5.26596 5.10322 
4.97131 4.86569 4.78095 0.177881 0.384387 0.606312 0.823235 1.01722 1.17997 
1.31187 1.4175 1.50223 6.18928 6.10703 6.03531 5.97283 5.91832 5.87061 
5.82869 5.79168 5.75886 0.0939024 0.176153 0.247873 0.310351 0.364864 0.412573 
0.454497 0.491504 0.524326 3.31947 3.52598 3.7479 3.96483 4.15881 4.32156 
4.45346 4.55909 4.64383 2.96371 2.75721 2.53528 2.31836 2.12437 1.96162 
1.82972 1.72409 1.63936 3.2355 3.31775 3.38947 3.45194 3.50646 3.55417 
3.59609 3.6331 3.66592 3.04769 2.96544 2.89372 2.83124 2.77673 2.72902 
2.6871 2.65009 2.61727 4.71239 4.71239 4.71239 4.71239 4.71239 4.71239 
4.71239 4.71239 4.71239 4.60879 4.49914 4.3857 4.27128 4.15881 4.05096 
3.94976 3.85646 3.77161 4.81599 4.92564 5.03907 5.1535 5.26596 5.37381 
5.47502 5.56831 5.65317 4.60879 4.49914 4.3857 4.27128 4.15881 4.05096 
3.94976 3.85646 3.77161 4.81599 4.92564 5.03907 5.1535 5.26596 5.37381 
5.47502 5.56831 5.65317 1.5708 1.5708 1.5708 1.5708 1.5708 1.5708 
1.5708 1.5708 1.5708 1.6744 1.78405 1.89748 2.01191 2.12437 2.23222 
2.33343 2.42672 2.51157 1.4672 1.35755 1.24411 1.12969 1.01722 0.909371 
0.808166 0.714871 0.63002 1.6744 1.78405 1.89748 2.01191 2.12437 2.23222 
2.33343 2.42672 2.51157 1.4672 1.35755 1.24411 1.12969 1.01722 0.909371 
0.808166 0.714871 0.63002 3.60077 3.49669 3.38395 3.26458 3.14159 3.01861 
2.89924 2.78649 2.68241 5.82401 5.92808 6.04083 6.1602 6.28319 0.122983 
0.242354 0.355101 0.459179 6.05603 5.78856 5.97021 5.51259 5.60297 5.78856 
5.26596 5.26596 5.26596 5.26596 5.06749 5.0121 4.91556 4.71239 4.15881 
4.91556 4.83537 4.71239 4.50922 4.15881 3.63622 4.80045 4.71239 4.58941 
4.41268 4.15881 3.82181 3.45456 4.71239 4.62433 4.50922 4.35729 4.15881 
3.91219 3.63622 3.36875 6.01742 5.94343 5.82633 5.88092 5.76745 5.62798 
5.8278 5.71897 5.58911 5.43724 5.78235 5.67854 5.55757 5.41926 5.26596 
5.74316 5.64441 5.5315 5.40467 5.26596 5.11955 5.70914 5.61528 5.50962 
5.3926 5.26596 5.13292 4.99789 5.67937 5.59016 5.49102 5.38246 5.26596 
5.14407 5.02016 4.89798 5.56831 5.47502 5.47502 5.37381 5.37381 5.37381 
5.26596 5.26596 5.26596 5.26596 5.1535 5.1535 5.1535 5.1535 5.1535 
5.03907 5.03907 5.03907 5.03907 5.03907 5.03907 4.92564 4.92564 4.92564 
4.92564 4.92564 4.92564 4.92564 4.81599 4.81599 4.81599 4.81599 4.81599 
4.81599 4.81599 4.81599 4.60879 4.60879 4.49914 4.60879 4.49914 4.3857 
4.60879 4.49914 4.3857 4.27128 4.60879 4.49914 4.3857 4.27128 4.15881 
4.60879 4.49914 4.3857 4.27128 4.15881 4.05096 4.60879 4.49914 4.3857 
4.27128 4.15881 4.05096 3.94976 4.60879 4.49914 4.3857 4.27128 4.15881 
4.05096 3.94976 3.85646 4.5268 4.40462 4.42689 4.28071 4.29185 4.30523 
4.15881 4.15881 4.15881 4.15881 4.04232 4.03217 4.02011 4.00552 3.98753 
3.93376 3.91515 3.89328 3.86721 3.83566 3.7968 3.83461 3.8095 3.78037 
3.74624 3.70581 3.65733 3.59845 3.7454 3.71564 3.68161 3.64243 3.59698 
3.54386 3.48135 3.40735 3.56428 3.45246 3.52338 3.33203 3.40312 3.47739 
3.20576 3.27463 3.34802 3.42551 3.07742 3.14159 3.21128 3.28647 3.36688 
2.95116 3.00855 3.0719 3.14159 3.21784 3.3006 2.83072 2.88006 2.93517 
2.99672 3.06535 3.14159 3.22575 2.7189 2.7598 2.8058 2.85768 2.9163 
2.98259 3.05743 3.14159 3.56428 3.52338 3.45246 3.47739 3.40312 3.33203 
3.42551 3.34802 3.27463 3.20576 3.36688 3.28647 3.21128 3.14159 3.07742 
3.3006 3.21784 3.14159 3.0719 3.00855 2.95116 3.22575 3.14159 3.06535 
2.99672 2.93517 2.88006 2.83072 3.14159 3.05743 2.98259 2.9163 2.85768 
2.8058 2.7598 2.7189 4.5268 4.42689 4.40462 4.30523 4.29185 4.28071 
4.15881 4.15881 4.15881 4.15881 3.98753 4.00552 4.02011 4.03217 4.04232 
3.7968 3.83566 3.86721 3.89328 3.91515 3.93376 3.59845 3.65733 3.70581 
3.74624 3.78037 3.8095 3.83461 3.40735 3.48135 3.54386 3.59698 3.64243 
3.68161 3.71564 3.7454 4.71239 4.80045 4.62433 4.91556 4.71239 4.50922 
5.06749 4.83537 4.58941 4.35729 5.26596 5.0121 4.71239 4.41268 4.15881 
5.51259 5.26596 4.91556 4.50922 4.15881 3.91219 5.78856 5.60297 5.26596 
4.71239 4.15881 3.82181 3.63622 6.05603 5.97021 5.78856 5.26596 4.15881 
3.63622 3.45456 3.36875 0.227158 0.494626 0.312971 0.770593 0.680215 0.494626 
1.01722 1.01722 1.01722 1.01722 1.2157 1.27109 1.36763 1.5708 2.12437 
1.36763 1.44781 1.5708 1.77397 2.12437 2.64697 1.48273 1.5708 1.69378 
1.8705 2.12437 2.46138 2.82862 1.5708 1.65886 1.77397 1.9259 2.12437 
2.371 2.64697 2.91443 1.75639 1.87857 1.8563 2.00248 1.99133 1.97796 
2.12437 2.12437 2.12437 2.12437 2.24087 2.25101 2.26308 2.27767 2.29565 
2.34943 2.36803 2.38991 2.41597 2.44752 2.48639 2.44857 2.47368 2.50281 
2.53694 2.57738 2.62586 2.68474 2.53778 2.56754 2.60157 2.64076 2.68621 
2.73933 2.80184 2.87583 1.6744 1.6744 1.78405 1.6744 1.78405 1.89748 
1.6744 1.78405 1.89748 2.01191 1.6744 1.78405 1.89748 2.01191 2.12437 
1.6744 1.78405 1.89748 2.01191 2.12437 2.23222 1.6744 1.78405 1.89748 
2.01191 2.12437 2.23222 2.33343 1.6744 1.78405 1.89748 2.01191 2.12437 
2.23222 2.33343 2.42672 1.4672 1.35755 1.4672 1.24411 1.35755 1.4672 
1.12969 1.24411 1.35755 1.4672 1.01722 1.12969 1.24411 1.35755 1.4672 
0.909371 1.01722 1.12969 1.24411 1.35755 1.4672 0.808166 0.909371 1.01722 
1.12969 1.24411 1.35755 1.4672 0.714871 0.808166 0.909371 1.01722 1.12969 
1.24411 1.35755 1.4672 0.603812 0.57405 0.693022 0.540021 0.667908 0.792164 
0.500837 0.638778 0.773562 0.900726 0.455383 0.604649 0.751687 0.890581 1.01722 
0.402264 0.564217 0.725619 0.878514 1.01722 1.13912 0.339753 0.515737 0.694072 
0.863926 1.01722 1.15026 1.26302 0.265762 0.456853 0.655207 0.845941 1.01722 
1.16363 1.28529 1.38521 0.227158 0.312971 0.494626 0.494626 0.680215 0.770593 
1.01722 1.01722 1.01722 1.01722 2.12437 1.5708 1.36763 1.27109 1.2157 
2.64697 2.12437 1.77397 1.5708 1.44781 1.36763 2.82862 2.46138 2.12437 
1.8705 1.69378 1.5708 1.48273 2.91443 2.64697 2.371 2.12437 1.9259 
1.77397 1.65886 1.5708 1.75639 1.8563 1.87857 1.97796 1.99133 2.00248 
2.12437 2.12437 2.12437 2.12437 2.29565 2.27767 2.26308 2.25101 2.24087 
2.48639 2.44752 2.41597 2.38991 2.36803 2.34943 2.68474 2.62586 2.57738 
2.53694 2.50281 2.47368 2.44857 2.87583 2.80184 2.73933 2.68621 2.64076 
2.60157 2.56754 2.53778 5.86049 5.90139 5.97231 5.94739 6.02165 6.09275 
5.99927 6.07676 6.15015 6.21902 6.0579 6.13831 6.2135 0 0.0641696 
6.12418 6.20694 6.28319 0.069689 0.13304 0.190437 6.19903 0 0.0762451 
0.144876 0.206423 0.261531 0.310872 0 0.0841597 0.159004 0.225289 0.283913 
0.335793 0.381792 0.422692 5.86049 5.97231 5.90139 6.09275 6.02165 5.94739 
6.21902 6.15015 6.07676 5.99927 0.0641696 0 6.2135 6.13831 6.0579 
0.190437 0.13304 0.069689 6.28319 6.20694 6.12418 0.310872 0.261531 0.206423 
0.144876 0.0762451 6.28319 6.19903 0.422692 0.381792 0.335793 0.283913 0.225289 
0.159004 0.0841597 0 5.67937 5.70914 5.59016 5.74316 5.61528 5.49102 
5.78235 5.64441 5.50962 5.38246 5.8278 5.67854 5.5315 5.3926 5.26596 
5.88092 5.71897 5.55757 5.40467 5.26596 5.14407 5.94343 5.76745 5.58911 
5.41926 5.26596 5.13292 5.02016 6.01742 5.82633 5.62798 5.43724 5.26596 
5.11955 4.99789 4.89798 1.38521 1.28529 1.26302 1.16363 1.15026 1.13912 
1.01722 1.01722 1.01722 1.01722 0.845941 0.863926 0.878514 0.890581 0.900726 
0.655207 0.694072 0.725619 0.751687 0.773562 0.792164 0.456853 0.515737 0.564217 
0.604649 0.638778 0.667908 0.693022 0.265762 0.339753 0.402264 0.455383 0.500837 
0.540021 0.57405 0.603812 
