# vtk DataFile Version 4.1
vtk output
ASCII
DATASET POLYDATA
POINTS 1002 float
45.9021 96.7258 97.5541 49.8387 100.283 108.88 43.5866 104.078 94.4769 
45.3888 108.833 105.658 50.8647 102.145 102.265 49.211 106.433 99.4821 
41.5962 98.7005 105.36 40.1582 103.907 103.489 53.8999 106.178 109.314 
47.6559 99.2874 91.0449 45.3189 104.373 111.548 42.5935 98.5518 95.609 
45.8099 97.629 98.4764 45.7891 98.4218 99.5894 45.8706 99.0602 100.861 
46.0647 99.6537 102.369 46.6238 99.9437 104.123 47.5557 99.7096 105.624 
48.3488 99.472 106.576 48.8571 99.618 107.378 49.3277 99.972 108.208 
46.1906 97.1518 97.6136 46.5338 97.6565 97.7857 46.9672 98.2015 98.0872 
47.4514 98.8228 98.5312 47.9692 99.5194 99.1184 48.5799 100.121 99.8281 
49.2528 100.624 100.585 49.8928 101.143 101.293 50.4327 101.667 101.863 
45.5127 96.9822 98.1023 45.0836 97.2919 98.7992 44.6724 97.524 99.6875 
44.1926 97.7184 100.689 43.5602 97.9982 101.638 43.0125 98.106 102.598 
42.6674 97.9386 103.61 42.2984 97.8973 104.454 41.8729 98.1958 105.012 
46.16 96.0211 96.7535 46.3967 95.3328 95.9795 46.6938 94.6575 95.2234 
47.0794 94.2532 94.5347 47.438 94.4615 93.848 47.6604 95.2107 93.0822 
47.7334 96.1853 92.4306 47.7486 97.264 91.9491 47.7259 98.3364 91.4758 
45.7588 95.9158 97.0651 45.5326 95.101 96.6533 45.1671 94.4536 96.3224 
44.6666 94.2222 95.9804 44.1678 94.5634 95.601 43.7968 95.3788 95.3502 
43.528 96.3767 95.3437 43.2433 97.2747 95.461 42.9234 97.9852 95.5524 
50.4582 100.235 108.611 51.1357 99.9968 108.255 51.6149 99.9797 107.748 
51.7202 100.457 107.132 51.6757 100.939 106.4 51.624 101.253 105.538 
51.4628 101.571 104.68 51.2334 101.848 103.894 51.0268 102.035 103.097 
49.0272 99.8047 108.755 48.342 99.0726 108.571 47.6787 98.5586 108.343 
46.8401 98.5303 108.176 45.8089 98.7969 107.975 44.7398 98.9822 107.552 
43.8109 98.9538 106.979 43.0212 98.8667 106.396 42.2796 98.7865 105.851 
50.6982 100.527 109.245 51.5371 100.704 109.574 52.2967 101.102 109.907 
53.0137 101.724 110.219 53.6717 102.307 110.456 54.1743 103.08 110.58 
54.4452 104.163 110.55 54.4116 105.069 110.256 54.1612 105.659 109.769 
49.7337 100.48 109.353 49.4972 100.74 109.85 49.1644 101.083 110.426 
48.809 101.39 111.051 48.294 101.713 111.591 47.6216 102.213 111.933 
47.0054 102.835 112.042 46.4155 103.44 111.976 45.8214 103.946 111.803 
43.6313 104.522 95.5217 43.651 105.07 96.6658 43.6819 105.736 97.8521 
43.7923 106.417 99.0664 43.9678 107.051 100.292 44.1289 107.721 101.494 
44.3149 108.315 102.622 44.6075 108.644 103.671 44.9795 108.771 104.681 
43.9312 104.412 94.4441 44.3299 104.74 94.5461 44.7954 105.122 94.7637 
45.3418 105.554 95.091 45.9951 105.867 95.654 46.6857 106.052 96.4479 
47.3397 106.209 97.2904 47.9858 106.323 98.0853 48.6225 106.391 98.8228 
43.2834 104.014 95.2539 42.9278 103.99 96.135 42.517 104.012 97.0547 
42.1362 104.032 98.0769 41.7654 104.048 99.1741 41.3244 104.065 100.15 
40.872 104.072 101.021 40.5512 104.016 101.9 40.3395 103.938 102.744 
43.7607 103.856 93.4119 44.0521 103.595 92.3435 44.3863 103.374 91.2382 
44.6517 103.227 90.109 45.1072 102.976 89.3263 45.8491 102.463 89.2573 
46.5026 101.7 89.6801 46.9531 100.817 90.147 47.3212 100.002 90.5798 
43.3222 103.611 93.9401 43.0136 103.117 93.4954 42.6876 102.575 93.1932 
42.3351 101.951 93.0304 41.9902 101.226 93.014 41.8036 100.416 93.2479 
41.8977 99.7354 93.8081 42.1754 99.3072 94.4993 42.4412 98.948 95.1107 
45.8465 108.903 105.046 46.389 108.912 104.333 46.9684 108.902 103.528 
47.5454 108.868 102.748 48.0904 108.649 102.109 48.5303 108.267 101.533 
48.8311 107.862 100.929 49.0287 107.409 100.369 49.1519 106.906 99.8972 
44.7333 108.654 105.65 44.1006 108.393 105.654 43.3606 108.116 105.597 
42.6136 107.771 105.423 42.0486 107.269 105.161 41.594 106.626 104.858 
41.1725 105.922 104.542 40.8018 105.222 104.219 40.4725 104.549 103.867 
46.1699 108.914 106.3 47.1602 108.9 106.987 48.2332 108.865 107.607 
49.3259 108.794 108.116 50.363 108.549 108.487 51.2848 108.151 108.757 
52.1234 107.719 109.02 52.8568 107.245 109.229 53.4285 106.703 109.304 
45.3747 108.834 106.611 45.3725 108.776 107.557 45.38 108.474 108.377 
45.3965 107.978 109.114 45.3737 107.486 109.816 45.312 106.988 110.443 
45.3253 106.378 110.91 45.3805 105.686 111.204 45.3679 104.995 111.404 
50.9862 102.499 101.916 51.0931 102.907 101.532 51.2195 103.334 101.128 
51.3064 103.851 100.691 51.2973 104.479 100.241 51.0697 105.059 99.9509 
50.5876 105.486 99.8433 50.0439 105.832 99.7548 49.5911 106.154 99.6216 
51.4182 102.518 103.048 52.0921 102.893 103.817 52.8166 103.265 104.596 
53.5642 103.571 105.279 54.3101 103.929 105.86 54.7572 104.481 106.514 
54.7466 105.037 107.304 54.5493 105.476 108.101 54.2741 105.848 108.788 
50.4852 101.89 101.118 50.0908 101.529 99.7754 49.6862 101.124 98.3395 
49.3143 100.715 96.9078 48.8757 100.258 95.582 48.391 99.7428 94.431 
48.0598 99.3435 93.4307 47.9329 99.1754 92.4994 47.8623 99.1753 91.6572 
49.7929 106.737 100.349 50.4605 107.019 101.235 51.1273 107.232 102.22 
51.7782 107.393 103.283 52.4669 107.511 104.284 53.0756 107.448 105.287 
53.4316 107.147 106.429 53.6414 106.798 107.58 53.8287 106.492 108.542 
48.8937 105.942 98.6358 48.5758 105.377 97.6612 48.2873 104.751 96.5544 
48.0385 104.093 95.332 47.7924 103.385 94.1154 47.5571 102.607 93.0568 
47.4613 101.806 92.1685 47.5447 100.98 91.4795 47.6404 100.125 91.1228 
41.1438 98.997 105.238 40.6779 99.3346 105.097 40.1534 99.7385 104.936 
39.7003 100.248 104.781 39.4746 100.887 104.623 39.3914 101.61 104.436 
39.3925 102.32 104.222 39.5667 102.947 103.963 39.8561 103.477 103.701 
41.9106 99.3461 105.948 42.2615 100.01 106.63 42.481 100.571 107.5 
42.5994 101.021 108.533 42.8099 101.45 109.54 43.1165 101.932 110.38 
43.4727 102.507 111.012 44.0135 103.154 111.36 44.6889 103.79 111.489 
41.0969 98.3258 104.672 40.6051 98.0611 103.852 40.1577 97.8822 102.855 
39.9548 97.7591 101.698 40.1517 97.6964 100.437 40.6442 97.7432 99.2038 
41.2596 97.9341 98.1623 41.8739 98.1676 97.2822 42.3361 98.3781 96.4296 
40.1981 104.337 104.442 40.3039 104.79 105.567 40.3968 105.1 107.003 
40.4836 105.119 108.429 40.8887 104.931 109.371 41.6835 104.778 109.962 
42.5925 104.663 110.458 43.5186 104.519 110.882 44.4608 104.417 111.232 
39.9169 103.299 102.607 39.6552 102.712 101.7 39.4634 102.138 100.863 
39.4504 101.552 100.043 39.7069 100.937 99.2175 40.1906 100.276 98.4288 
40.8162 99.6762 97.6386 41.4822 99.267 96.8838 42.0933 98.9347 96.205 
53.4982 106.105 109.951 52.933 106.024 110.567 52.2658 106.003 111.198 
51.4155 105.914 111.701 50.4181 105.687 111.988 49.398 105.49 112.167 
48.263 105.29 112.224 47.0898 105 112.089 46.1365 104.691 111.817 
47.1948 98.9482 91.0038 46.4775 98.6605 91.2193 45.7881 98.2987 91.4437 
45.0935 97.8885 91.5742 44.3259 97.6569 91.772 43.8004 97.6915 92.2655 
43.5782 97.8953 93.0374 43.3275 98.1367 93.905 42.9723 98.3642 94.7676 
46.1707 98.0522 98.6325 46.6139 98.5133 98.9043 46.237 98.8121 99.8444 
47.1257 99.0154 99.3429 46.7747 99.256 100.25 46.4007 99.4572 101.235 
47.6721 99.6315 99.9358 47.3898 99.7403 100.873 47.123 99.7998 101.829 
46.8463 99.8771 102.908 48.3108 100.238 100.662 48.1116 100.241 101.607 
47.9903 100.082 102.602 47.8556 99.9565 103.588 47.6819 99.8859 104.653 
49.0527 100.69 101.478 48.9763 100.607 102.357 48.9663 100.346 103.308 
48.8706 100.177 104.261 48.7076 100.076 105.146 48.522 99.8648 105.956 
49.8016 101.122 102.216 49.8391 100.952 103.05 49.9516 100.641 103.885 
49.8852 100.518 104.804 49.6893 100.545 105.64 49.4976 100.348 106.335 
49.2019 100.032 106.922 50.4743 101.59 102.755 50.5994 101.398 103.571 
50.7918 101.075 104.357 50.8536 100.843 105.236 50.7547 100.785 106.102 
50.651 100.552 106.801 50.3789 100.272 107.377 49.8583 100.177 107.837 
46.454 96.5249 96.8077 46.73 95.9196 96.0225 46.8185 97.1445 96.9784 
47.0448 95.4243 95.2547 47.1339 96.6832 96.1729 47.2644 97.861 97.2788 
47.3948 95.272 94.537 47.4075 96.3795 95.3969 47.5562 97.5815 96.4686 
47.7323 98.6689 97.7492 47.7899 95.6069 93.7414 47.693 96.4138 94.6442 
47.7818 97.4057 95.7026 47.9963 98.5302 96.9844 48.259 99.4516 98.3761 
48.1048 96.254 92.9322 48.0667 96.8052 93.8111 48.0404 97.5459 94.9209 
48.2502 98.4649 96.2269 48.5363 99.4122 97.6289 48.8865 100.097 99.0642 
48.1437 97.1202 92.4001 48.2583 97.3897 93.1405 48.2722 97.9787 94.1644 
48.4835 98.6957 95.4538 48.7856 99.487 96.8807 49.1219 100.169 98.2999 
49.5245 100.688 99.7829 48.0202 98.163 92.0258 48.1366 98.2087 92.7868 
48.244 98.5643 93.6991 48.5348 99.1569 94.8181 48.9269 99.7894 96.1606 
49.2652 100.364 97.5895 49.6523 100.858 99.0331 50.0669 101.301 100.506 
47.7365 100.11 91.9772 47.6644 101.022 92.5248 47.8646 100.199 92.9884 
47.7777 101.898 93.2805 47.9912 101.206 93.6143 48.1832 100.446 94.0346 
48.0295 102.773 94.2402 48.2684 102.162 94.4516 48.4992 101.524 94.7671 
48.7037 100.845 95.1467 48.3097 103.6 95.4043 48.5625 103.063 95.5496 
48.8493 102.469 95.7524 49.1113 101.841 96.0145 49.2696 101.236 96.4012 
48.606 104.342 96.6168 48.9159 103.895 96.7307 49.2316 103.338 96.8962 
49.5269 102.713 97.0957 49.7109 102.121 97.3886 49.7407 101.577 97.8408 
48.931 105.023 97.7385 49.3321 104.642 97.8306 49.7258 104.172 97.9583 
50.0086 103.577 98.1785 50.1705 102.978 98.4902 50.2065 102.437 98.9039 
50.1599 101.94 99.3644 49.2642 105.631 98.7446 49.7168 105.286 98.8459 
50.2179 104.895 98.9286 50.574 104.385 99.1031 50.703 103.777 99.459 
50.7071 103.212 99.8978 50.6438 102.718 100.343 50.5686 102.273 100.759 
51.5764 102.937 102.685 51.7567 103.366 102.287 52.3211 103.374 103.468 
51.9062 103.828 101.879 52.5115 103.838 103.055 53.0672 103.757 104.224 
51.9526 104.455 101.413 52.5822 104.412 102.599 53.1857 104.324 103.755 
53.799 104.125 104.858 51.8106 105.152 101.006 52.4973 105.151 102.151 
53.1387 105.076 103.315 53.8126 104.925 104.436 54.3985 104.708 105.502 
51.3737 105.688 100.804 52.1361 105.805 101.86 52.8659 105.821 102.997 
53.5845 105.781 104.125 54.1702 105.632 105.196 54.5192 105.339 106.24 
[...]
POINT_DATA 1002
SCALARS Color_Map_Phi float
LOOKUP_TABLE default
6.28319 3.14159 6.28319 3.14159 4.71239 4.71239 1.5708 1.5708 3.69517 
5.72961 2.58802 0.553574 6.28319 6.28319 6.28319 6.28319 3.14159 3.14159 
3.14159 3.14159 3.14159 6.1053 5.8988 5.67687 5.45995 5.26596 5.10322 
4.97131 4.86569 4.78095 0.177881 0.384387 0.606312 0.823235 1.01722 1.17997 
1.31187 1.4175 1.50223 6.18928 6.10703 6.03531 5.97283 5.91832 5.87061 
5.82869 5.79168 5.75886 0.0939024 0.176153 0.247873 0.310351 0.364864 0.412573 
0.454497 0.491504 0.524326 3.31947 3.52598 3.7479 3.96483 4.15881 4.32156 
4.45346 4.55909 4.64383 2.96371 2.75721 2.53528 2.31836 2.12437 1.96162 
1.82972 1.72409 1.63936 3.2355 3.31775 3.38947 3.45194 3.50646 3.55417 
3.59609 3.6331 3.66592 3.04769 2.96544 2.89372 2.83124 2.77673 2.72902 
2.6871 2.65009 2.61727 6.28319 6.28319 6.28319 6.28319 3.14159 3.14159 
3.14159 3.14159 3.14159 6.1053 5.8988 5.67687 5.45995 5.26596 5.10322 
4.97131 4.86569 4.78095 0.177881 0.384387 0.606312 0.823235 1.01722 1.17997 
1.31187 1.4175 1.50223 6.18928 6.10703 6.03531 5.97283 5.91832 5.87061 
5.82869 5.79168 5.75886 0.0939024 0.176153 0.247873 0.310351 0.364864 0.412573 
0.454497 0.491504 0.524326 3.31947 3.52598 3.7479 3.96483 4.15881 4.32156 
4.45346 4.55909 4.64383 2.96371 2.75721 2.53528 2.31836 2.12437 1.96162 
1.82972 1.72409 1.63936 3.2355 3.31775 3.38947 3.45194 3.50646 3.55417 
3.59609 3.6331 3.66592 3.04769 2.96544 2.89372 2.83124 2.77673 2.72902 
2.6871 2.65009 2.61727 4.71239 4.71239 4.71239 4.71239 4.71239 4.71239 
4.71239 4.71239 4.71239 4.60879 4.49914 4.3857 4.27128 4.15881 4.05096 
3.94976 3.85646 3.77161 4.81599 4.92564 5.03907 5.1535 5.26596 5.37381 
5.47502 5.56831 5.65317 4.60879 4.49914 4.3857 4.27128 4.15881 4.05096 
3.94976 3.85646 3.77161 4.81599 4.92564 5.03907 5.1535 5.26596 5.37381 
5.47502 5.56831 5.65317 1.5708 1.5708 1.5708 1.5708 1.5708 1.5708 
1.5708 1.5708 1.5708 1.6744 1.78405 1.89748 2.01191 2.12437 2.23222 
2.33343 2.42672 2.51157 1.4672 1.35755 1.24411 1.12969 1.01722 0.909371 
0.808166 0.714871 0.63002 1.6744 1.78405 1.89748 2.01191 2.12437 2.23222 
2.33343 2.42672 2.51157 1.4672 1.35755 1.24411 1.12969 1.01722 0.909371 
0.808166 0.714871 0.63002 3.60077 3.49669 3.38395 3.26458 3.14159 3.01861 
2.89924 2.78649 2.68241 5.82401 5.92808 6.04083 6.1602 6.28319 0.122983 
0.242354 0.355101 0.459179 6.05603 5.78856 5.97021 5.51259 5.60297 5.78856 
5.26596 5.26596 5.26596 5.26596 5.06749 5.0121 4.91556 4.71239 4.15881 
4.91556 4.83537 4.71239 4.50922 4.15881 3.63622 4.80045 4.71239 4.58941 
4.41268 4.15881 3.82181 3.45456 4.71239 4.62433 4.50922 4.35729 4.15881 
3.91219 3.63622 3.36875 6.01742 5.94343 5.82633 5.88092 5.76745 5.62798 
5.8278 5.71897 5.58911 5.43724 5.78235 5.67854 5.55757 5.41926 5.26596 
5.74316 5.64441 5.5315 5.40467 5.26596 5.11955 5.70914 5.61528 5.50962 
5.3926 5.26596 5.13292 4.99789 5.67937 5.59016 5.49102 5.38246 5.26596 
5.14407 5.02016 4.89798 5.56831 5.47502 5.47502 5.37381 5.37381 5.37381 
5.26596 5.26596 5.26596 5.26596 5.1535 5.1535 5.1535 5.1535 5.1535 
5.03907 5.03907 5.03907 5.03907 5.03907 5.03907 4.92564 4.92564 4.92564 
4.92564 4.92564 4.92564 4.92564 4.81599 4.81599 4.81599 4.81599 4.81599 
4.81599 4.81599 4.81599 4.60879 4.60879 4.49914 4.60879 4.49914 4.3857 
4.60879 4.49914 4.3857 4.27128 4.60879 4.49914 4.3857 4.27128 4.15881 
4.60879 4.49914 4.3857 4.27128 4.15881 4.05096 4.60879 4.49914 4.3857 
4.27128 4.15881 4.05096 3.94976 4.60879 4.49914 4.3857 4.27128 4.15881 
4.05096 3.94976 3.85646 4.5268 4.40462 4.42689 4.28071 4.29185 4.30523 
4.15881 4.15881 4.15881 4.15881 4.04232 4.03217 4.02011 4.00552 3.98753 
3.93376 3.91515 3.89328 3.86721 3.83566 3.7968 3.83461 3.8095 3.78037 
3.74624 3.70581 3.65733 3.59845 3.7454 3.71564 3.68161 3.64243 3.59698 
3.54386 3.48135 3.40735 3.56428 3.45246 3.52338 3.33203 3.40312 3.47739 
3.20576 3.27463 3.34802 3.42551 3.07742 3.14159 3.21128 3.28647 3.36688 
2.95116 3.00855 3.0719 3.14159 3.21784 3.3006 2.83072 2.88006 2.93517 
2.99672 3.06535 3.14159 3.22575 2.7189 2.7598 2.8058 2.85768 2.9163 
2.98259 3.05743 3.14159 3.56428 3.52338 3.45246 3.47739 3.40312 3.33203 
3.42551 3.34802 3.27463 3.20576 3.36688 3.28647 3.21128 3.14159 3.07742 
3.3006 3.21784 3.14159 3.0719 3.00855 2.95116 3.22575 3.14159 3.06535 
2.99672 2.93517 2.88006 2.83072 3.14159 3.05743 2.98259 2.9163 2.85768 
2.8058 2.7598 2.7189 4.5268 4.42689 4.40462 4.30523 4.29185 4.28071 
4.15881 4.15881 4.15881 4.15881 3.98753 4.00552 4.02011 4.03217 4.04232 
3.7968 3.83566 3.86721 3.89328 3.91515 3.93376 3.59845 3.65733 3.70581 
3.74624 3.78037 3.8095 3.83461 3.40735 3.48135 3.54386 3.59698 3.64243 
3.68161 3.71564 3.7454 4.71239 4.80045 4.62433 4.91556 4.71239 4.50922 
5.06749 4.83537 4.58941 4.35729 5.26596 5.0121 4.71239 4.41268 4.15881 
5.51259 5.26596 4.91556 4.50922 4.15881 3.91219 5.78856 5.60297 5.26596 
4.71239 4.15881 3.82181 3.63622 6.05603 5.97021 5.78856 5.26596 4.15881 
3.63622 3.45456 3.36875 0.227158 0.494626 0.312971 0.770593 0.680215 0.494626 
1.01722 1.01722 1.01722 1.01722 1.2157 1.27109 1.36763 1.5708 2.12437 
1.36763 1.44781 1.5708 1.77397 2.12437 2.64697 1.48273 1.5708 1.69378 
1.8705 2.12437 2.46138 2.82862 1.5708 1.65886 1.77397 1.9259 2.12437 
2.371 2.64697 2.91443 1.75639 1.87857 1.8563 2.00248 1.99133 1.97796 
2.12437 2.12437 2.12437 2.12437 2.24087 2.25101 2.26308 2.27767 2.29565 
2.34943 2.36803 2.38991 2.41597 2.44752 2.48639 2.44857 2.47368 2.50281 
2.53694 2.57738 2.62586 2.68474 2.53778 2.56754 2.60157 2.64076 2.68621 
2.73933 2.80184 2.87583 1.6744 1.6744 1.78405 1.6744 1.78405 1.89748 
1.6744 1.78405 1.89748 2.01191 1.6744 1.78405 1.89748 2.01191 2.12437 
1.6744 1.78405 1.89748 2.01191 2.12437 2.23222 1.6744 1.78405 1.89748 
2.01191 2.12437 2.23222 2.33343 1.6744 1.78405 1.89748 2.01191 2.12437 
2.23222 2.33343 2.42672 1.4672 1.35755 1.4672 1.24411 1.35755 1.4672 
1.12969 1.24411 1.35755 1.4672 1.01722 1.12969 1.24411 1.35755 1.4672 
0.909371 1.01722 1.12969 1.24411 1.35755 1.4672 0.808166 0.909371 1.01722 
1.12969 1.24411 1.35755 1.4672 0.714871 0.808166 0.909371 1.01722 1.12969 
1.24411 1.35755 1.4672 0.603812 0.57405 0.693022 0.540021 0.667908 0.792164 
0.500837 0.638778 0.773562 0.900726 0.455383 0.604649 0.751687 0.890581 1.01722 
0.402264 0.564217 0.725619 0.878514 1.01722 1.13912 0.339753 0.515737 0.694072 
0.863926 1.01722 1.15026 1.26302 0.265762 0.456853 0.655207 0.845941 1.01722 
1.16363 1.28529 1.38521 0.227158 0.312971 0.494626 0.494626 0.680215 0.770593 
1.01722 1.01722 1.01722 1.01722 2.12437 1.5708 1.36763 1.27109 1.2157 
2.64697 2.12437 1.77397 1.5708 1.44781 1.36763 2.82862 2.46138 2.12437 
1.8705 1.69378 1.5708 1.48273 2.91443 2.64697 2.371 2.12437 1.9259 
1.77397 1.65886 1.5708 1.75639 1.8563 1.87857 1.97796 1.99133 2.00248 
2.12437 2.12437 2.12437 2.12437 2.29565 2.27767 2.26308 2.25101 2.24087 
2.48639 2.44752 2.41597 2.38991 2.36803 2.34943 2.68474 2.62586 2.57738 
2.53694 2.50281 2.47368 2.44857 2.87583 2.80184 2.73933 2.68621 2.64076 
2.60157 2.56754 2.53778 5.86049 5.90139 5.97231 5.94739 6.02165 6.09275 
5.99927 6.07676 6.15015 6.21902 6.0579 6.13831 6.2135 0 0.0641696 
6.12418 6.20694 6.28319 0.069689 0.13304 0.190437 6.19903 0 0.0762451 
0.144876 0.206423 0.261531 0.310872 0 0.0841597 0.159004 0.225289 0.283913 
0.335793 0.381792 0.422692 5.86049 5.97231 5.90139 6.09275 6.02165 5.94739 
6.21902 6.15015 6.07676 5.99927 0.0641696 0 6.2135 6.13831 6.0579 
0.190437 0.13304 0.069689 6.28319 6.20694 6.12418 0.310872 0.261531 0.206423 
0.144876 0.0762451 6.28319 6.19903 0.422692 0.381792 0.335793 0.283913 0.225289 
0.159004 0.0841597 0 5.67937 5.70914 5.59016 5.74316 5.61528 5.49102 
5.78235 5.64441 5.50962 5.38246 5.8278 5.67854 5.5315 5.3926 5.26596 
5.88092 5.71897 5.55757 5.40467 5.26596 5.14407 5.94343 5.76745 5.58911 
5.41926 5.26596 5.13292 5.02016 6.01742 5.82633 5.62798 5.43724 5.26596 
5.11955 4.99789 4.89798 1.38521 1.28529 1.26302 1.16363 1.15026 1.13912 
1.01722 1.01722 1.01722 1.01722 0.845941 0.863926 0.878514 0.890581 0.900726 
0.655207 0.694072 0.725619 0.751687 0.773562 0.792164 0.456853 0.515737 0.564217 
0.604649 0.638778 0.667908 0.693022 0.265762 0.339753 0.402264 0.455383 0.500837 
0.540021 0.57405 0.603812 
