# vtk DataFile Version 4.1
vtk output
ASCII
DATASET POLYDATA
POINTS 1002 float
46.7616 96.9683 96.1409 49.9592 100.191 104.842 43.5843 102.837 93.9301 
45.5314 105.912 102.21 52.6174 102.186 99.8602 50.4383 105.573 97.0929 
41.2333 97.7129 102.747 38.4056 101.665 101.044 54.7184 105.341 105.268 
48.2154 99.5979 90.8573 44.6749 102.331 107.289 42.8618 96.7232 94.6471 
46.7519 97.7049 96.7774 46.7746 98.4337 97.5627 46.8881 99.0668 98.5335 
47.0525 99.6135 99.5807 47.2154 100.154 100.656 47.5085 100.571 101.788 
48.091 100.597 102.823 48.8277 100.348 103.62 49.4941 100.148 104.258 
47.099 97.4348 96.1868 47.4947 97.9634 96.3273 47.9326 98.5702 96.5695 
48.3932 99.2716 96.882 48.9009 100.004 97.2905 49.5151 100.672 97.8425 
50.2365 101.242 98.5389 51.0363 101.675 99.2151 51.8561 101.954 99.6391 
46.4264 97.0397 96.5165 46.048 97.1975 96.9935 45.6223 97.4274 97.6105 
45.1169 97.6948 98.3615 44.5117 97.9278 99.1758 43.831 98.052 99.9577 
43.1076 98.104 100.751 42.4055 98.0155 101.528 41.8105 97.8486 102.208 
46.9377 96.5129 95.5724 47.1014 96.0553 94.9995 47.3493 95.7578 94.4379 
47.7194 95.707 93.8481 48.0895 95.9447 93.2271 48.326 96.455 92.6321 
48.3951 97.191 92.1025 48.3511 98.0411 91.6331 48.261 98.874 91.2238 
46.5887 96.2058 95.7925 46.4522 95.1917 95.4778 46.2702 94.0835 95.2791 
45.9268 93.352 95.1858 45.393 93.4938 94.9997 44.789 94.1866 94.7085 
44.2119 94.8543 94.5142 43.6888 95.472 94.4616 43.2318 96.1099 94.52 
50.5157 100.41 104.503 51.1679 100.596 104.083 51.8433 100.74 103.654 
52.4778 100.879 103.189 52.9855 101.023 102.614 53.2465 101.205 101.984 
53.2271 101.496 101.43 53.0196 101.851 100.956 52.8152 102.075 100.426 
49.1844 99.9212 104.746 48.2759 99.8079 104.635 47.278 99.7858 104.553 
46.2557 99.7087 104.398 45.2371 99.5519 103.988 44.2651 99.2876 103.485 
43.4368 98.8968 103.148 42.6564 98.4791 102.969 41.913 98.0741 102.844 
50.6385 100.551 105.213 51.3493 100.992 105.492 52.0999 101.393 105.689 
52.8508 101.81 105.845 53.5876 102.299 105.99 54.2447 102.891 106.058 
54.713 103.565 105.989 54.8842 104.268 105.797 54.8614 104.881 105.539 
49.8349 100.176 105.423 49.5903 100.271 106.05 49.2045 100.37 106.67 
48.6852 100.459 107.263 48.0659 100.597 107.739 47.3339 100.915 108.004 
46.5317 101.364 108.019 45.783 101.767 107.836 45.1652 102.089 107.582 
43.6409 103.22 94.6576 43.7197 103.627 95.4326 43.8074 104.065 96.2369 
43.9333 104.507 97.1141 44.1135 104.931 98.0353 44.3097 105.319 98.9073 
44.5254 105.631 99.7994 44.7974 105.818 100.72 45.1514 105.901 101.551 
44.0274 103.095 93.8397 44.5474 103.367 93.8201 45.1258 103.665 93.895 
45.764 103.972 94.1131 46.5202 104.282 94.4813 47.3633 104.601 94.9866 
48.1604 104.906 95.5256 48.9024 105.162 96.0789 49.6708 105.385 96.6055 
43.1914 102.804 94.5327 42.7803 102.742 95.2653 42.3281 102.665 96.0899 
41.8014 102.571 96.9505 41.2113 102.445 97.7999 40.5894 102.283 98.6103 
39.9345 102.125 99.3292 39.2839 102.002 99.9262 38.7626 101.864 100.49 
43.8102 102.607 93.1292 44.0755 102.354 92.2995 44.3188 102.123 91.4127 
44.6077 101.899 90.5649 45.135 101.636 89.9829 45.9409 101.285 89.8341 
46.7291 100.89 90.0624 47.2918 100.497 90.3827 47.7609 100.06 90.6555 
43.3153 102.416 93.6042 43.0646 101.917 93.3829 42.8454 101.329 93.2685 
42.6886 100.636 93.2523 42.5934 99.8624 93.3495 42.5206 99.0398 93.556 
42.4944 98.2519 93.824 42.5649 97.6207 94.1016 42.7 97.1334 94.3704 
45.9942 106.138 101.794 46.4695 106.361 101.294 46.9529 106.566 100.69 
47.4897 106.683 100.001 48.1068 106.685 99.2834 48.7381 106.602 98.6663 
49.3385 106.428 98.1756 49.8171 106.17 97.786 50.1634 105.854 97.4288 
44.8269 105.65 102.23 44.0821 105.315 102.205 43.2835 104.958 102.146 
42.4206 104.586 102.051 41.5915 104.115 101.938 40.8508 103.557 101.793 
40.1475 103.016 101.617 39.4378 102.549 101.422 38.8684 102.09 101.229 
46.2424 105.995 102.54 47.0533 106.034 102.904 47.939 106.094 103.324 
48.8915 106.143 103.763 49.9246 106.102 104.168 51.0492 106.035 104.531 
52.2109 105.971 104.849 53.2441 105.84 105.093 54.0818 105.617 105.222 
45.4959 105.714 102.789 45.4583 105.436 103.375 45.3954 105.09 103.98 
45.2871 104.735 104.603 45.144 104.396 105.229 45.0007 104.028 105.815 
44.8858 103.601 106.314 44.8035 103.162 106.717 44.7381 102.745 107.04 
52.9028 102.384 99.5364 53.0681 102.707 99.2168 53.0845 103.129 98.892 
52.9905 103.586 98.528 52.8515 104.105 98.1217 52.6323 104.695 97.7437 
52.2569 105.177 97.455 51.7087 105.434 97.2782 51.0693 105.523 97.1752 
53.487 102.344 100.315 54.4522 102.491 100.715 55.4543 102.675 101.07 
56.2752 103.02 101.492 56.6713 103.562 102.153 56.6963 104.133 103.013 
56.487 104.61 103.82 56.073 104.996 104.455 55.4305 105.219 104.925 
51.9612 102.094 99.0683 51.2952 101.963 98.0951 50.7724 101.668 96.8849 
50.4236 101.157 95.5565 50.0794 100.63 94.3167 49.7735 100.205 93.17 
49.6164 99.821 92.054 49.4013 99.5564 91.224 48.8855 99.5222 90.889 
51.0401 105.906 97.7994 51.6744 106.23 98.5579 52.4064 106.496 99.3698 
53.1512 106.579 100.325 53.772 106.449 101.409 54.2406 106.221 102.435 
54.6949 106.057 103.314 54.9703 105.897 104.072 54.9302 105.652 104.739 
50.1929 105.178 96.4295 49.9233 104.7 95.6892 49.6623 104.14 94.8438 
49.3892 103.521 93.9045 49.1153 102.88 92.9249 48.9749 102.248 91.9171 
49.0162 101.601 90.9862 48.9159 100.936 90.5483 48.602 100.246 90.5771 
40.427 97.459 102.963 39.5033 97.2479 103.114 38.5248 97.1958 103.108 
37.6983 97.488 102.94 37.2589 98.1812 102.681 37.2391 99.0569 102.396 
37.4625 99.8408 102.064 37.7626 100.528 101.682 38.0728 101.157 101.322 
41.1027 97.8923 103.245 41.0633 98.2071 103.741 41.179 98.6268 104.289 
41.54 99.0821 104.916 42.0759 99.5573 105.565 42.6011 100.073 106.21 
43.0249 100.645 106.808 43.5109 101.266 107.169 44.096 101.852 107.298 
40.9745 97.448 102.353 40.8197 97.2078 101.914 40.7782 97.0787 101.321 
40.9423 97.0753 100.456 41.3371 97.1148 99.342 41.8193 97.0488 98.1745 
42.2029 96.8612 97.0829 42.4717 96.7044 96.1287 42.7085 96.6661 95.3384 
38.5205 101.634 101.772 38.8338 101.59 102.517 39.2621 101.612 103.216 
39.8076 101.72 103.922 40.54 101.837 104.633 41.3564 101.98 105.298 
42.1658 102.155 105.94 43.0015 102.278 106.54 43.8573 102.309 106.987 
38.2974 101.318 100.513 38.3717 100.833 99.9959 38.6385 100.214 99.5247 
39.0953 99.5678 99.0687 39.7666 99.0696 98.5433 40.5471 98.6841 97.8844 
41.2614 98.2474 97.0602 41.8619 97.7441 96.138 42.3993 97.2389 95.2994 
54.0776 105.171 105.676 53.2835 104.973 106.039 52.2715 104.747 106.386 
51.0869 104.488 106.75 49.939 104.177 107.09 48.8131 103.811 107.355 
47.6244 103.416 107.488 46.5015 103.021 107.483 45.5339 102.656 107.401 
47.4906 99.2385 91.1518 46.8619 98.7254 91.3052 46.3236 98.117 91.3952 
45.7396 97.5282 91.6353 45.0215 96.9897 91.943 44.2631 96.5126 92.1337 
43.6762 96.2246 92.4538 43.3453 96.2257 93.095 43.1187 96.4348 93.8812 
47.1433 98.1842 96.9184 47.6042 98.6978 97.1913 47.2287 98.8975 97.8298 
48.1046 99.296 97.5302 47.7655 99.3822 98.2012 47.4238 99.496 98.879 
48.6615 99.9556 97.9166 48.3741 99.9305 98.5885 48.0551 99.9535 99.2806 
47.6631 100.039 99.9697 49.3225 100.61 98.4414 49.0666 100.538 99.0897 
48.78 100.48 99.7967 48.4293 100.459 100.48 47.9602 100.527 101.135 
50.126 101.155 99.1392 49.9242 101.061 99.7587 49.6356 101.005 100.467 
49.3453 100.897 101.138 48.9439 100.805 101.723 48.4773 100.739 102.302 
51.0373 101.573 99.8172 50.9803 101.398 100.381 50.7993 101.278 101.039 
50.5147 101.186 101.739 50.1726 101.003 102.292 49.7327 100.796 102.774 
49.2636 100.577 103.23 51.9531 101.87 100.257 52.0403 101.659 100.798 
52.0755 101.388 101.337 51.9245 101.219 101.989 51.6002 101.051 102.591 
51.1217 100.834 103.065 50.5612 100.619 103.492 50.0104 100.382 103.902 
47.2772 97.0611 95.5839 47.4465 96.7625 94.9659 47.6928 97.6925 95.6748 
47.7121 96.6153 94.3433 47.8733 97.5374 94.9973 48.1418 98.4313 95.8789 
48.1182 96.6338 93.6943 48.1252 97.5339 94.3333 48.3191 98.4233 95.1704 
48.5935 99.259 96.206 48.5371 96.8562 93.0343 48.4917 97.647 93.6962 
48.5479 98.5208 94.528 48.7902 99.3094 95.5165 49.1018 100.056 96.6503 
48.8187 97.3257 92.386 48.8828 97.8862 93.0509 48.8815 98.6627 93.9545 
49.0789 99.3885 94.8992 49.3653 100.102 96.0081 49.7386 100.757 97.269 
48.9383 98.0017 91.778 49.1767 98.3025 92.3638 49.218 98.89 93.3468 
49.4081 99.5154 94.3597 49.6945 100.169 95.395 49.9942 100.832 96.6571 
50.4369 101.352 97.9988 48.9549 98.7627 91.2564 49.3451 98.8886 91.7129 
49.4704 99.2812 92.6635 49.6448 99.779 93.7816 49.9629 100.33 94.8711 
50.2491 100.963 96.0857 50.6128 101.488 97.4271 51.2049 101.778 98.6413 
49.2097 100.248 90.8236 49.387 101.034 91.1411 49.6033 100.407 91.4815 
49.3649 101.815 91.965 49.6779 101.3 92.1534 49.8038 100.727 92.56 
49.4726 102.514 92.9644 49.81 102.095 93.0761 50.0398 101.589 93.3111 
50.1104 101.061 93.753 49.7764 103.212 93.9381 50.1516 102.826 94.0255 
50.4398 102.351 94.2005 50.5575 101.866 94.5518 50.5266 101.466 95.0566 
50.1443 103.939 94.8509 50.5814 103.618 94.9327 50.922 103.138 95.1362 
51.0836 102.635 95.5016 51.0574 102.253 95.996 50.9355 101.953 96.4919 
50.5036 104.599 95.6874 51.0283 104.384 95.7607 51.408 103.948 95.9895 
51.6145 103.393 96.3821 51.6695 102.935 96.87 51.6156 102.588 97.3591 
51.4836 102.258 97.7687 50.8279 105.121 96.4591 51.4361 104.988 96.5342 
51.8907 104.64 96.7408 52.1494 104.085 97.1018 52.2798 103.533 97.5533 
52.3378 103.102 98.0035 52.3166 102.711 98.4016 52.1903 102.354 98.75 
53.756 102.624 100.021 53.8621 103.029 99.729 54.6518 102.913 100.471 
53.7928 103.543 99.4302 54.6441 103.467 100.252 55.5443 103.301 100.887 
53.6223 104.125 99.0669 54.4796 104.122 99.9789 55.3826 104.034 100.737 
56.2352 103.837 101.393 53.3756 104.77 98.6762 54.213 104.832 99.6089 
55.0617 104.774 100.5 55.8895 104.63 101.319 56.5494 104.436 102.141 
52.9678 105.348 98.3569 53.785 105.484 99.2517 54.6172 105.458 100.173 
55.3509 105.266 101.141 56.0534 105.117 102.088 56.5435 104.953 102.992 
52.3903 105.699 98.1263 53.1619 105.93 98.9822 53.9981 105.997 99.8683 
[...]
POINT_DATA 1002
SCALARS Color_Map_Phi float
LOOKUP_TABLE default
6.28319 3.14159 6.28319 3.14159 4.71239 4.71239 1.5708 1.5708 3.69517 
5.72961 2.58802 0.553574 6.28319 6.28319 6.28319 6.28319 3.14159 3.14159 
3.14159 3.14159 3.14159 6.1053 5.8988 5.67687 5.45995 5.26596 5.10322 
4.97131 4.86569 4.78095 0.177881 0.384387 0.606312 0.823235 1.01722 1.17997 
1.31187 1.4175 1.50223 6.18928 6.10703 6.03531 5.97283 5.91832 5.87061 
5.82869 5.79168 5.75886 0.0939024 0.176153 0.247873 0.310351 0.364864 0.412573 
0.454497 0.491504 0.524326 3.31947 3.52598 3.7479 3.96483 4.15881 4.32156 
4.45346 4.55909 4.64383 2.96371 2.75721 2.53528 2.31836 2.12437 1.96162 
1.82972 1.72409 1.63936 3.2355 3.31775 3.38947 3.45194 3.50646 3.55417 
3.59609 3.6331 3.66592 3.04769 2.96544 2.89372 2.83124 2.77673 2.72902 
2.6871 2.65009 2.61727 6.28319 6.28319 6.28319 6.28319 3.14159 3.14159 
3.14159 3.14159 3.14159 6.1053 5.8988 5.67687 5.45995 5.26596 5.10322 
4.97131 4.86569 4.78095 0.177881 0.384387 0.606312 0.823235 1.01722 1.17997 
1.31187 1.4175 1.50223 6.18928 6.10703 6.03531 5.97283 5.91832 5.87061 
5.82869 5.79168 5.75886 0.0939024 0.176153 0.247873 0.310351 0.364864 0.412573 
0.454497 0.491504 0.524326 3.31947 3.52598 3.7479 3.96483 4.15881 4.32156 
4.45346 4.55909 4.64383 2.96371 2.75721 2.53528 2.31836 2.12437 1.96162 
1.82972 1.72409 1.63936 3.2355 3.31775 3.38947 3.45194 3.50646 3.55417 
3.59609 3.6331 3.66592 3.04769 2.96544 2.89372 2.83124 2.77673 2.72902 
2.6871 2.65009 2.61727 4.71239 4.71239 4.71239 4.71239 4.71239 4.71239 
4.71239 4.71239 4.71239 4.60879 4.49914 4.3857 4.27128 4.15881 4.05096 
3.94976 3.85646 3.77161 4.81599 4.92564 5.03907 5.1535 5.26596 5.37381 
5.47502 5.56831 5.65317 4.60879 4.49914 4.3857 4.27128 4.15881 4.05096 
3.94976 3.85646 3.77161 4.81599 4.92564 5.03907 5.1535 5.26596 5.37381 
5.47502 5.56831 5.65317 1.5708 1.5708 1.5708 1.5708 1.5708 1.5708 
1.5708 1.5708 1.5708 1.6744 1.78405 1.89748 2.01191 2.12437 2.23222 
2.33343 2.42672 2.51157 1.4672 1.35755 1.24411 1.12969 1.01722 0.909371 
0.808166 0.714871 0.63002 1.6744 1.78405 1.89748 2.01191 2.12437 2.23222 
2.33343 2.42672 2.51157 1.4672 1.35755 1.24411 1.12969 1.01722 0.909371 
0.808166 0.714871 0.63002 3.60077 3.49669 3.38395 3.26458 3.14159 3.01861 
2.89924 2.78649 2.68241 5.82401 5.92808 6.04083 6.1602 6.28319 0.122983 
0.242354 0.355101 0.459179 6.05603 5.78856 5.97021 5.51259 5.60297 5.78856 
5.26596 5.26596 5.26596 5.26596 5.06749 5.0121 4.91556 4.71239 4.15881 
4.91556 4.83537 4.71239 4.50922 4.15881 3.63622 4.80045 4.71239 4.58941 
4.41268 4.15881 3.82181 3.45456 4.71239 4.62433 4.50922 4.35729 4.15881 
3.91219 3.63622 3.36875 6.01742 5.94343 5.82633 5.88092 5.76745 5.62798 
5.8278 5.71897 5.58911 5.43724 5.78235 5.67854 5.55757 5.41926 5.26596 
5.74316 5.64441 5.5315 5.40467 5.26596 5.11955 5.70914 5.61528 5.50962 
5.3926 5.26596 5.13292 4.99789 5.67937 5.59016 5.49102 5.38246 5.26596 
5.14407 5.02016 4.89798 5.56831 5.47502 5.47502 5.37381 5.37381 5.37381 
5.26596 5.26596 5.26596 5.26596 5.1535 5.1535 5.1535 5.1535 5.1535 
5.03907 5.03907 5.03907 5.03907 5.03907 5.03907 4.92564 4.92564 4.92564 
4.92564 4.92564 4.92564 4.92564 4.81599 4.81599 4.81599 4.81599 4.81599 
4.81599 4.81599 4.81599 4.60879 4.60879 4.49914 4.60879 4.49914 4.3857 
4.60879 4.49914 4.3857 4.27128 4.60879 4.49914 4.3857 4.27128 4.15881 
4.60879 4.49914 4.3857 4.27128 4.15881 4.05096 4.60879 4.49914 4.3857 
4.27128 4.15881 4.05096 3.94976 4.60879 4.49914 4.3857 4.27128 4.15881 
4.05096 3.94976 3.85646 4.5268 4.40462 4.42689 4.28071 4.29185 4.30523 
4.15881 4.15881 4.15881 4.15881 4.04232 4.03217 4.02011 4.00552 3.98753 
3.93376 3.91515 3.89328 3.86721 3.83566 3.7968 3.83461 3.8095 3.78037 
3.74624 3.70581 3.65733 3.59845 3.7454 3.71564 3.68161 3.64243 3.59698 
3.54386 3.48135 3.40735 3.56428 3.45246 3.52338 3.33203 3.40312 3.47739 
3.20576 3.27463 3.34802 3.42551 3.07742 3.14159 3.21128 3.28647 3.36688 
2.95116 3.00855 3.0719 3.14159 3.21784 3.3006 2.83072 2.88006 2.93517 
2.99672 3.06535 3.14159 3.22575 2.7189 2.7598 2.8058 2.85768 2.9163 
2.98259 3.05743 3.14159 3.56428 3.52338 3.45246 3.47739 3.40312 3.33203 
3.42551 3.34802 3.27463 3.20576 3.36688 3.28647 3.21128 3.14159 3.07742 
3.3006 3.21784 3.14159 3.0719 3.00855 2.95116 3.22575 3.14159 3.06535 
2.99672 2.93517 2.88006 2.83072 3.14159 3.05743 2.98259 2.9163 2.85768 
2.8058 2.7598 2.7189 4.5268 4.42689 4.40462 4.30523 4.29185 4.28071 
4.15881 4.15881 4.15881 4.15881 3.98753 4.00552 4.02011 4.03217 4.04232 
3.7968 3.83566 3.86721 3.89328 3.91515 3.93376 3.59845 3.65733 3.70581 
3.74624 3.78037 3.8095 3.83461 3.40735 3.48135 3.54386 3.59698 3.64243 
3.68161 3.71564 3.7454 4.71239 4.80045 4.62433 4.91556 4.71239 4.50922 
5.06749 4.83537 4.58941 4.35729 5.26596 5.0121 4.71239 4.41268 4.15881 
5.51259 5.26596 4.91556 4.50922 4.15881 3.91219 5.78856 5.60297 5.26596 
4.71239 4.15881 3.82181 3.63622 6.05603 5.97021 5.78856 5.26596 4.15881 
3.63622 3.45456 3.36875 0.227158 0.494626 0.312971 0.770593 0.680215 0.494626 
1.01722 1.01722 1.01722 1.01722 1.2157 1.27109 1.36763 1.5708 2.12437 
1.36763 1.44781 1.5708 1.77397 2.12437 2.64697 1.48273 1.5708 1.69378 
1.8705 2.12437 2.46138 2.82862 1.5708 1.65886 1.77397 1.9259 2.12437 
2.371 2.64697 2.91443 1.75639 1.87857 1.8563 2.00248 1.99133 1.97796 
2.12437 2.12437 2.12437 2.12437 2.24087 2.25101 2.26308 2.27767 2.29565 
2.34943 2.36803 2.38991 2.41597 2.44752 2.48639 2.44857 2.47368 2.50281 
2.53694 2.57738 2.62586 2.68474 2.53778 2.56754 2.60157 2.64076 2.68621 
2.73933 2.80184 2.87583 1.6744 1.6744 1.78405 1.6744 1.78405 1.89748 
1.6744 1.78405 1.89748 2.01191 1.6744 1.78405 1.89748 2.01191 2.12437 
1.6744 1.78405 1.89748 2.01191 2.12437 2.23222 1.6744 1.78405 1.89748 
2.01191 2.12437 2.23222 2.33343 1.6744 1.78405 1.89748 2.01191 2.12437 
2.23222 2.33343 2.42672 1.4672 1.35755 1.4672 1.24411 1.35755 1.4672 
1.12969 1.24411 1.35755 1.4672 1.01722 1.12969 1.24411 1.35755 1.4672 
0.909371 1.01722 1.12969 1.24411 1.35755 1.4672 0.808166 0.909371 1.01722 
1.12969 1.24411 1.35755 1.4672 0.714871 0.808166 0.909371 1.01722 1.12969 
1.24411 1.35755 1.4672 0.603812 0.57405 0.693022 0.540021 0.667908 0.792164 
0.500837 0.638778 0.773562 0.900726 0.455383 0.604649 0.751687 0.890581 1.01722 
0.402264 0.564217 0.725619 0.878514 1.01722 1.13912 0.339753 0.515737 0.694072 
0.863926 1.01722 1.15026 1.26302 0.265762 0.456853 0.655207 0.845941 1.01722 
1.16363 1.28529 1.38521 0.227158 0.312971 0.494626 0.494626 0.680215 0.770593 
1.01722 1.01722 1.01722 1.01722 2.12437 1.5708 1.36763 1.27109 1.2157 
2.64697 2.12437 1.77397 1.5708 1.44781 1.36763 2.82862 2.46138 2.12437 
1.8705 1.69378 1.5708 1.48273 2.91443 2.64697 2.371 2.12437 1.9259 
1.77397 1.65886 1.5708 1.75639 1.8563 1.87857 1.97796 1.99133 2.00248 
2.12437 2.12437 2.12437 2.12437 2.29565 2.27767 2.26308 2.25101 2.24087 
2.48639 2.44752 2.41597 2.38991 2.36803 2.34943 2.68474 2.62586 2.57738 
2.53694 2.50281 2.47368 2.44857 2.87583 2.80184 2.73933 2.68621 2.64076 
2.60157 2.56754 2.53778 5.86049 5.90139 5.97231 5.94739 6.02165 6.09275 
5.99927 6.07676 6.15015 6.21902 6.0579 6.13831 6.2135 0 0.0641696 
6.12418 6.20694 6.28319 0.069689 0.13304 0.190437 6.19903 0 0.0762451 
0.144876 0.206423 0.261531 0.310872 0 0.0841597 0.159004 0.225289 0.283913 
0.335793 0.381792 0.422692 5.86049 5.97231 5.90139 6.09275 6.02165 5.94739 
6.21902 6.15015 6.07676 5.99927 0.0641696 0 6.2135 6.13831 6.0579 
0.190437 0.13304 0.069689 6.28319 6.20694 6.12418 0.310872 0.261531 0.206423 
0.144876 0.0762451 6.28319 6.19903 0.422692 0.381792 0.335793 0.283913 0.225289 
0.159004 0.0841597 0 5.67937 5.70914 5.59016 5.74316 5.61528 5.49102 
5.78235 5.64441 5.50962 5.38246 5.8278 5.67854 5.5315 5.3926 5.26596 
5.88092 5.71897 5.55757 5.40467 5.26596 5.14407 5.94343 5.76745 5.58911 
5.41926 5.26596 5.13292 5.02016 6.01742 5.82633 5.62798 5.43724 5.26596 
5.11955 4.99789 4.89798 1.38521 1.28529 1.26302 1.16363 1.15026 1.13912 
1.01722 1.01722 1.01722 1.01722 0.845941 0.863926 0.878514 0.890581 0.900726 
0.655207 0.694072 0.725619 0.751687 0.773562 0.792164 0.456853 0.515737 0.564217 
0.604649 0.638778 0.667908 0.693022 0.265762 0.339753 0.402264 0.455383 0.500837 
0.540021 0.57405 0.603812 
