# vtk DataFile Version 4.1
vtk output
ASCII
DATASET POLYDATA
POINTS 1002 float
46.8339 95.0005 95.8327 49.8595 98.518 105.16 43.85 103.943 92.0421 
45.4223 106.334 101.642 53.8172 100.379 98.2951 51.045 105.943 95.6672 
40.2566 96.2938 103.431 38.1814 101.676 100.589 55.0719 104.968 105.154 
48.8949 99.8972 90.6001 43.8738 102.081 107.796 41.8803 97.1317 94.6054 
46.8718 95.7017 96.4183 46.9856 96.3157 97.2713 47.1621 96.8986 98.2313 
47.3153 97.5282 99.1812 47.4921 98.0898 100.293 47.9051 98.337 101.534 
48.5484 98.2837 102.588 49.1656 98.2084 103.496 49.5935 98.2927 104.393 
47.2948 95.5094 95.8251 47.856 96.068 95.9029 48.4889 96.691 96.0731 
49.1868 97.3361 96.3345 49.9451 97.9504 96.6474 50.7743 98.5355 96.9885 
51.6912 99.0295 97.3743 52.5812 99.4403 97.7808 53.2856 99.8929 98.1043 
46.4356 95.0219 96.2377 45.997 95.1369 96.8206 45.4511 95.3351 97.5369 
44.795 95.5711 98.3533 44.0993 95.7579 99.325 43.3399 95.8416 100.377 
42.5297 95.9222 101.365 41.7501 96.0202 102.256 40.9819 96.1123 102.969 
47.1174 94.5669 95.3544 47.5108 94.2715 94.8304 48.0329 94.236 94.2155 
48.5092 94.5265 93.5313 48.7552 95.2077 92.87 48.7826 96.2027 92.342 
48.7452 97.2829 91.8936 48.7459 98.2741 91.4145 48.8162 99.1371 90.9664 
46.616 94.1172 95.615 46.3607 93.1197 95.4231 45.902 92.5678 95.1629 
45.2568 92.8318 94.8332 44.5179 93.5746 94.5068 43.7362 94.3104 94.2764 
43.0356 95.0304 94.2323 42.5423 95.8301 94.3476 42.1875 96.5373 94.4899 
50.4437 98.6926 104.722 51.0235 98.9488 104.166 51.607 99.2394 103.493 
52.2365 99.4412 102.835 52.9629 99.463 102.211 53.5766 99.4575 101.418 
53.9044 99.5751 100.537 54.0056 99.8111 99.7178 53.9522 100.103 98.9724 
49.1397 98.1862 105.185 48.3331 97.8741 105.2 47.3237 97.6928 105.136 
46.109 97.6142 104.965 44.9621 97.3898 104.744 43.9956 97.0661 104.443 
43.0235 96.8508 104.113 42.0016 96.6696 103.863 41.0659 96.4437 103.673 
50.4475 98.9312 105.518 51.0733 99.4705 105.757 51.7759 100.088 105.934 
52.5762 100.695 106.08 53.3704 101.32 106.154 54.075 102.063 106.134 
54.6773 102.912 106.054 55.0732 103.745 105.891 55.1847 104.442 105.567 
49.5774 98.6445 105.812 49.1815 98.8652 106.417 48.7163 99.1258 107.011 
48.1182 99.4496 107.545 47.3625 99.8463 108.01 46.5658 100.26 108.429 
45.7802 100.734 108.638 45.0207 101.271 108.512 44.3751 101.738 108.176 
43.9216 104.285 92.7416 44.0385 104.603 93.6353 44.1497 104.939 94.6268 
44.2456 105.31 95.67 44.3814 105.644 96.7616 44.5309 105.939 97.8265 
44.6666 106.195 98.8707 44.85 106.347 99.9202 45.1115 106.382 100.874 
44.3953 104.263 91.7804 44.9864 104.595 91.6341 45.6235 104.966 91.6285 
46.3646 105.332 91.8006 47.231 105.592 92.2321 48.1442 105.771 92.882 
48.9966 105.901 93.6091 49.7453 105.955 94.3457 50.4212 105.957 95.0439 
43.3665 103.832 92.7688 42.8703 103.692 93.6352 42.3236 103.532 94.6026 
41.7091 103.332 95.6405 41.0595 103.069 96.6973 40.3483 102.777 97.6345 
39.5889 102.523 98.3963 38.9341 102.268 99.0953 38.4768 101.974 99.8291 
44.1073 103.801 91.2093 44.3169 103.709 90.2602 44.4975 103.604 89.3105 
44.991 103.296 88.8842 45.8461 102.807 89.0823 46.6784 102.261 89.4037 
47.3335 101.672 89.6667 47.9274 101.049 89.9911 48.4662 100.446 90.3246 
43.4483 103.512 91.8577 42.9794 103.04 91.7289 42.4816 102.514 91.6911 
42.0302 101.827 91.802 41.7276 100.919 92.1152 41.6657 99.9674 92.6613 
41.7596 99.1782 93.3106 41.8415 98.4782 93.861 41.8685 97.7673 94.2628 
46.0216 106.541 101.133 46.6833 106.731 100.533 47.3096 106.974 99.9006 
47.9049 107.157 99.2277 48.6235 107.171 98.3982 49.4065 107.146 97.5439 
50.0173 107.031 96.9533 50.4269 106.692 96.5402 50.7584 106.29 96.0997 
44.6654 106.085 101.662 43.8662 105.746 101.658 43.016 105.369 101.635 
42.1598 104.945 101.586 41.3222 104.443 101.504 40.5211 103.893 101.393 
39.8211 103.323 101.247 39.2233 102.72 101.044 38.6811 102.149 100.813 
46.1729 106.347 102.024 47.0891 106.286 102.412 48.1007 106.222 102.848 
49.1581 106.169 103.301 50.2572 106.108 103.737 51.3908 106.035 104.169 
52.5119 105.909 104.561 53.5475 105.679 104.847 54.4196 105.347 105.012 
45.2983 106.077 102.342 45.1697 105.742 103.069 44.9918 105.371 103.816 
44.7903 104.95 104.549 44.6189 104.453 105.255 44.434 103.987 105.952 
44.2205 103.585 106.611 44.0621 103.123 107.14 43.9605 102.594 107.514 
53.9852 100.863 97.9775 54.0797 101.433 97.6633 54.0464 102.132 97.3783 
53.8932 102.972 97.1123 53.6358 103.783 96.8315 53.2103 104.402 96.551 
52.6813 104.927 96.2753 52.1303 105.365 96.0293 51.5837 105.7 95.8192 
54.3932 100.699 98.8491 54.9358 101.091 99.5376 55.39 101.622 100.386 
55.8476 102.113 101.194 56.2675 102.546 101.962 56.5034 103.141 102.867 
56.4788 103.851 103.831 56.2173 104.395 104.543 55.7287 104.741 104.94 
53.3652 100.292 97.5061 52.9327 100.137 96.5479 52.5056 99.9992 95.4582 
52.0662 99.8681 94.4011 51.6792 99.6654 93.3496 51.3559 99.4918 92.2877 
50.9622 99.486 91.438 50.3567 99.6193 90.9548 49.6201 99.7687 90.7165 
51.4956 106.1 96.5561 52.02 106.188 97.545 52.6379 106.225 98.5826 
53.2775 106.206 99.6534 53.9116 106.131 100.769 54.5536 106.07 101.893 
55.0763 105.976 102.94 55.3106 105.711 103.831 55.2706 105.339 104.57 
50.9097 105.595 94.8879 50.7492 105.178 94.0481 50.5984 104.697 93.1268 
50.4379 104.152 92.2196 50.2734 103.524 91.4207 50.2366 102.804 90.6456 
50.2393 102.023 90.0929 49.9429 101.262 90.039 49.4206 100.557 90.3016 
39.3537 96.4972 103.379 38.4983 96.7955 103.261 37.7826 97.1409 103.131 
37.209 97.6676 102.901 36.8102 98.4456 102.507 36.718 99.3049 102.069 
36.957 100.059 101.669 37.3014 100.695 101.299 37.7315 101.218 100.937 
40.1265 96.7255 103.908 40.1788 97.303 104.382 40.3784 97.8631 104.961 
40.6688 98.3706 105.639 41.0774 98.909 106.293 41.5934 99.4998 106.871 
42.1532 100.143 107.33 42.7251 100.84 107.636 43.2975 101.512 107.79 
39.933 96.146 102.816 39.6683 96.1047 101.983 39.5931 96.1427 100.987 
39.7586 96.2453 99.9563 40.0709 96.3344 98.9411 40.4714 96.3741 97.9268 
40.9274 96.473 96.9444 41.3193 96.6346 96.0618 41.6132 96.8338 95.2776 
38.2401 101.694 101.536 38.3173 101.804 102.545 38.5578 101.918 103.534 
39.0633 101.907 104.436 39.6678 101.899 105.255 40.3275 101.994 106.021 
41.1553 102.065 106.661 42.0982 102.06 107.117 43.0299 102.056 107.463 
37.8714 101.391 99.8864 37.6791 101.006 99.1688 37.7343 100.501 98.4925 
37.9784 99.9108 97.8539 38.4643 99.2439 97.3109 39.2449 98.672 96.8849 
40.1233 98.3003 96.4129 40.8287 97.9176 95.7784 41.3887 97.4964 95.1368 
54.3555 104.849 105.587 53.3731 104.649 105.988 52.1977 104.356 106.346 
50.9657 104.088 106.768 49.6891 103.873 107.29 48.3695 103.506 107.621 
47.1088 103.02 107.736 45.9103 102.661 107.872 44.8028 102.395 107.931 
48.1674 99.5647 90.7289 47.3586 99.2035 90.8894 46.4056 98.8098 91.1089 
45.4904 98.381 91.3485 44.5885 97.9136 91.5461 43.6159 97.4527 91.746 
42.9308 97.1913 92.2186 42.603 97.1551 93.0244 42.2983 97.1563 93.8737 
47.4025 96.1731 96.5297 48.0077 96.7283 96.7223 47.5805 96.7969 97.4595 
48.6822 97.3364 96.979 48.213 97.3725 97.6926 47.7867 97.4199 98.4463 
49.4609 97.9292 97.2912 48.9563 97.9482 97.9734 48.4672 97.9963 98.7153 
47.9788 98.0504 99.4977 50.3354 98.4845 97.6528 49.8568 98.4716 98.3348 
49.3211 98.513 99.0747 48.7924 98.5323 99.8875 48.305 98.4829 100.733 
51.328 98.9417 98.0626 50.9075 98.8864 98.7764 50.3845 98.8971 99.5352 
49.8221 98.8917 100.331 49.3434 98.7506 101.152 48.9123 98.5466 101.928 
52.4007 99.2803 98.4763 52.1187 99.1441 99.2169 51.6726 99.0918 100.014 
51.0728 99.1 100.801 50.5264 98.9798 101.537 50.0717 98.7205 102.269 
49.6007 98.4714 102.927 53.3117 99.6486 98.7956 53.2365 99.4056 99.5403 
52.9717 99.2453 100.363 52.439 99.2232 101.201 51.7656 99.2223 101.906 
51.1859 99.0482 102.568 50.6613 98.7641 103.265 50.1116 98.5109 103.876 
47.6076 95.2345 95.2925 48.0271 95.0925 94.7143 48.2061 95.9241 95.2996 
48.6051 95.0751 94.0583 48.643 95.9007 94.6876 48.8943 96.6497 95.4351 
49.1862 95.3045 93.3196 49.2433 95.9621 94.0157 49.3639 96.7113 94.8065 
49.64 97.35 95.6857 49.5048 95.9697 92.6144 49.8357 96.2344 93.2318 
49.9334 96.8451 94.1119 50.1215 97.4479 95.0288 50.4247 98.0177 95.9875 
49.542 96.9749 92.063 50.1615 96.8904 92.4685 50.4588 97.1711 93.3075 
50.6197 97.6848 94.3483 50.8941 98.2146 95.3264 51.2742 98.6764 96.3347 
49.5017 98.0252 91.5968 50.2557 97.81 91.868 50.7775 97.8006 92.5305 
51.0421 98.1125 93.5986 51.2908 98.5776 94.6858 51.6816 98.9529 95.6835 
52.1264 99.2296 96.7436 49.5361 98.9565 91.1358 50.3037 98.7519 91.3801 
50.92 98.6216 91.9118 51.2898 98.7337 92.866 51.5693 99.0604 93.9965 
51.9417 99.3563 95.0444 52.387 99.5494 96.1007 52.8311 99.7374 97.1668 
50.1852 100.467 90.4891 50.5889 101.244 90.4605 50.8266 100.387 90.9343 
50.6789 102.093 90.8753 51.0128 101.287 91.2726 51.2443 100.366 91.7618 
50.7148 102.922 91.6088 51.0948 102.208 91.9382 51.3934 101.339 92.3911 
51.6097 100.431 92.8382 50.9178 103.647 92.3847 51.3305 103.028 92.6826 
51.6567 102.239 93.1151 51.9104 101.35 93.5208 52.0705 100.533 93.9061 
51.1111 104.267 93.2633 51.5957 103.75 93.4812 51.9822 103.051 93.8371 
52.2522 102.204 94.2424 52.461 101.366 94.5908 52.5646 100.614 94.9902 
51.2693 104.8 94.2032 51.7895 104.378 94.3914 52.243 103.815 94.6578 
52.5771 103.055 95.0143 52.8101 102.21 95.3812 52.9931 101.413 95.7409 
53.0342 100.706 96.1485 51.437 105.282 95.0531 51.974 104.898 95.2554 
52.4899 104.429 95.5028 52.9188 103.818 95.8103 53.2125 103.048 96.1509 
53.4182 102.208 96.4813 53.5397 101.448 96.8178 53.5029 100.815 97.174 
54.5796 101.236 98.5311 54.632 101.905 98.2591 55.0952 101.732 99.29 
54.5452 102.77 98.0132 55.106 102.545 99.0403 55.5345 102.354 100.148 
54.3419 103.709 97.7533 54.9897 103.527 98.7604 55.537 103.248 99.8787 
55.9547 102.944 100.922 53.951 104.442 97.4908 54.7029 104.428 98.4606 
55.3494 104.195 99.5994 55.8758 103.881 100.705 56.2783 103.538 101.724 
53.3678 104.994 97.2572 54.1718 105.068 98.2197 54.9036 104.955 99.3209 
55.5033 104.697 100.534 56.0272 104.485 101.592 56.3935 104.229 102.672 
[...]
POINT_DATA 1002
SCALARS Color_Map_Phi float
LOOKUP_TABLE default
6.28319 3.14159 6.28319 3.14159 4.71239 4.71239 1.5708 1.5708 3.69517 
5.72961 2.58802 0.553574 6.28319 6.28319 6.28319 6.28319 3.14159 3.14159 
3.14159 3.14159 3.14159 6.1053 5.8988 5.67687 5.45995 5.26596 5.10322 
4.97131 4.86569 4.78095 0.177881 0.384387 0.606312 0.823235 1.01722 1.17997 
1.31187 1.4175 1.50223 6.18928 6.10703 6.03531 5.97283 5.91832 5.87061 
5.82869 5.79168 5.75886 0.0939024 0.176153 0.247873 0.310351 0.364864 0.412573 
0.454497 0.491504 0.524326 3.31947 3.52598 3.7479 3.96483 4.15881 4.32156 
4.45346 4.55909 4.64383 2.96371 2.75721 2.53528 2.31836 2.12437 1.96162 
1.82972 1.72409 1.63936 3.2355 3.31775 3.38947 3.45194 3.50646 3.55417 
3.59609 3.6331 3.66592 3.04769 2.96544 2.89372 2.83124 2.77673 2.72902 
2.6871 2.65009 2.61727 6.28319 6.28319 6.28319 6.28319 3.14159 3.14159 
3.14159 3.14159 3.14159 6.1053 5.8988 5.67687 5.45995 5.26596 5.10322 
4.97131 4.86569 4.78095 0.177881 0.384387 0.606312 0.823235 1.01722 1.17997 
1.31187 1.4175 1.50223 6.18928 6.10703 6.03531 5.97283 5.91832 5.87061 
5.82869 5.79168 5.75886 0.0939024 0.176153 0.247873 0.310351 0.364864 0.412573 
0.454497 0.491504 0.524326 3.31947 3.52598 3.7479 3.96483 4.15881 4.32156 
4.45346 4.55909 4.64383 2.96371 2.75721 2.53528 2.31836 2.12437 1.96162 
1.82972 1.72409 1.63936 3.2355 3.31775 3.38947 3.45194 3.50646 3.55417 
3.59609 3.6331 3.66592 3.04769 2.96544 2.89372 2.83124 2.77673 2.72902 
2.6871 2.65009 2.61727 4.71239 4.71239 4.71239 4.71239 4.71239 4.71239 
4.71239 4.71239 4.71239 4.60879 4.49914 4.3857 4.27128 4.15881 4.05096 
3.94976 3.85646 3.77161 4.81599 4.92564 5.03907 5.1535 5.26596 5.37381 
5.47502 5.56831 5.65317 4.60879 4.49914 4.3857 4.27128 4.15881 4.05096 
3.94976 3.85646 3.77161 4.81599 4.92564 5.03907 5.1535 5.26596 5.37381 
5.47502 5.56831 5.65317 1.5708 1.5708 1.5708 1.5708 1.5708 1.5708 
1.5708 1.5708 1.5708 1.6744 1.78405 1.89748 2.01191 2.12437 2.23222 
2.33343 2.42672 2.51157 1.4672 1.35755 1.24411 1.12969 1.01722 0.909371 
0.808166 0.714871 0.63002 1.6744 1.78405 1.89748 2.01191 2.12437 2.23222 
2.33343 2.42672 2.51157 1.4672 1.35755 1.24411 1.12969 1.01722 0.909371 
0.808166 0.714871 0.63002 3.60077 3.49669 3.38395 3.26458 3.14159 3.01861 
2.89924 2.78649 2.68241 5.82401 5.92808 6.04083 6.1602 6.28319 0.122983 
0.242354 0.355101 0.459179 6.05603 5.78856 5.97021 5.51259 5.60297 5.78856 
5.26596 5.26596 5.26596 5.26596 5.06749 5.0121 4.91556 4.71239 4.15881 
4.91556 4.83537 4.71239 4.50922 4.15881 3.63622 4.80045 4.71239 4.58941 
4.41268 4.15881 3.82181 3.45456 4.71239 4.62433 4.50922 4.35729 4.15881 
3.91219 3.63622 3.36875 6.01742 5.94343 5.82633 5.88092 5.76745 5.62798 
5.8278 5.71897 5.58911 5.43724 5.78235 5.67854 5.55757 5.41926 5.26596 
5.74316 5.64441 5.5315 5.40467 5.26596 5.11955 5.70914 5.61528 5.50962 
5.3926 5.26596 5.13292 4.99789 5.67937 5.59016 5.49102 5.38246 5.26596 
5.14407 5.02016 4.89798 5.56831 5.47502 5.47502 5.37381 5.37381 5.37381 
5.26596 5.26596 5.26596 5.26596 5.1535 5.1535 5.1535 5.1535 5.1535 
5.03907 5.03907 5.03907 5.03907 5.03907 5.03907 4.92564 4.92564 4.92564 
4.92564 4.92564 4.92564 4.92564 4.81599 4.81599 4.81599 4.81599 4.81599 
4.81599 4.81599 4.81599 4.60879 4.60879 4.49914 4.60879 4.49914 4.3857 
4.60879 4.49914 4.3857 4.27128 4.60879 4.49914 4.3857 4.27128 4.15881 
4.60879 4.49914 4.3857 4.27128 4.15881 4.05096 4.60879 4.49914 4.3857 
4.27128 4.15881 4.05096 3.94976 4.60879 4.49914 4.3857 4.27128 4.15881 
4.05096 3.94976 3.85646 4.5268 4.40462 4.42689 4.28071 4.29185 4.30523 
4.15881 4.15881 4.15881 4.15881 4.04232 4.03217 4.02011 4.00552 3.98753 
3.93376 3.91515 3.89328 3.86721 3.83566 3.7968 3.83461 3.8095 3.78037 
3.74624 3.70581 3.65733 3.59845 3.7454 3.71564 3.68161 3.64243 3.59698 
3.54386 3.48135 3.40735 3.56428 3.45246 3.52338 3.33203 3.40312 3.47739 
3.20576 3.27463 3.34802 3.42551 3.07742 3.14159 3.21128 3.28647 3.36688 
2.95116 3.00855 3.0719 3.14159 3.21784 3.3006 2.83072 2.88006 2.93517 
2.99672 3.06535 3.14159 3.22575 2.7189 2.7598 2.8058 2.85768 2.9163 
2.98259 3.05743 3.14159 3.56428 3.52338 3.45246 3.47739 3.40312 3.33203 
3.42551 3.34802 3.27463 3.20576 3.36688 3.28647 3.21128 3.14159 3.07742 
3.3006 3.21784 3.14159 3.0719 3.00855 2.95116 3.22575 3.14159 3.06535 
2.99672 2.93517 2.88006 2.83072 3.14159 3.05743 2.98259 2.9163 2.85768 
2.8058 2.7598 2.7189 4.5268 4.42689 4.40462 4.30523 4.29185 4.28071 
4.15881 4.15881 4.15881 4.15881 3.98753 4.00552 4.02011 4.03217 4.04232 
3.7968 3.83566 3.86721 3.89328 3.91515 3.93376 3.59845 3.65733 3.70581 
3.74624 3.78037 3.8095 3.83461 3.40735 3.48135 3.54386 3.59698 3.64243 
3.68161 3.71564 3.7454 4.71239 4.80045 4.62433 4.91556 4.71239 4.50922 
5.06749 4.83537 4.58941 4.35729 5.26596 5.0121 4.71239 4.41268 4.15881 
5.51259 5.26596 4.91556 4.50922 4.15881 3.91219 5.78856 5.60297 5.26596 
4.71239 4.15881 3.82181 3.63622 6.05603 5.97021 5.78856 5.26596 4.15881 
3.63622 3.45456 3.36875 0.227158 0.494626 0.312971 0.770593 0.680215 0.494626 
1.01722 1.01722 1.01722 1.01722 1.2157 1.27109 1.36763 1.5708 2.12437 
1.36763 1.44781 1.5708 1.77397 2.12437 2.64697 1.48273 1.5708 1.69378 
1.8705 2.12437 2.46138 2.82862 1.5708 1.65886 1.77397 1.9259 2.12437 
2.371 2.64697 2.91443 1.75639 1.87857 1.8563 2.00248 1.99133 1.97796 
2.12437 2.12437 2.12437 2.12437 2.24087 2.25101 2.26308 2.27767 2.29565 
2.34943 2.36803 2.38991 2.41597 2.44752 2.48639 2.44857 2.47368 2.50281 
2.53694 2.57738 2.62586 2.68474 2.53778 2.56754 2.60157 2.64076 2.68621 
2.73933 2.80184 2.87583 1.6744 1.6744 1.78405 1.6744 1.78405 1.89748 
1.6744 1.78405 1.89748 2.01191 1.6744 1.78405 1.89748 2.01191 2.12437 
1.6744 1.78405 1.89748 2.01191 2.12437 2.23222 1.6744 1.78405 1.89748 
2.01191 2.12437 2.23222 2.33343 1.6744 1.78405 1.89748 2.01191 2.12437 
2.23222 2.33343 2.42672 1.4672 1.35755 1.4672 1.24411 1.35755 1.4672 
1.12969 1.24411 1.35755 1.4672 1.01722 1.12969 1.24411 1.35755 1.4672 
0.909371 1.01722 1.12969 1.24411 1.35755 1.4672 0.808166 0.909371 1.01722 
1.12969 1.24411 1.35755 1.4672 0.714871 0.808166 0.909371 1.01722 1.12969 
1.24411 1.35755 1.4672 0.603812 0.57405 0.693022 0.540021 0.667908 0.792164 
0.500837 0.638778 0.773562 0.900726 0.455383 0.604649 0.751687 0.890581 1.01722 
0.402264 0.564217 0.725619 0.878514 1.01722 1.13912 0.339753 0.515737 0.694072 
0.863926 1.01722 1.15026 1.26302 0.265762 0.456853 0.655207 0.845941 1.01722 
1.16363 1.28529 1.38521 0.227158 0.312971 0.494626 0.494626 0.680215 0.770593 
1.01722 1.01722 1.01722 1.01722 2.12437 1.5708 1.36763 1.27109 1.2157 
2.64697 2.12437 1.77397 1.5708 1.44781 1.36763 2.82862 2.46138 2.12437 
1.8705 1.69378 1.5708 1.48273 2.91443 2.64697 2.371 2.12437 1.9259 
1.77397 1.65886 1.5708 1.75639 1.8563 1.87857 1.97796 1.99133 2.00248 
2.12437 2.12437 2.12437 2.12437 2.29565 2.27767 2.26308 2.25101 2.24087 
2.48639 2.44752 2.41597 2.38991 2.36803 2.34943 2.68474 2.62586 2.57738 
2.53694 2.50281 2.47368 2.44857 2.87583 2.80184 2.73933 2.68621 2.64076 
2.60157 2.56754 2.53778 5.86049 5.90139 5.97231 5.94739 6.02165 6.09275 
5.99927 6.07676 6.15015 6.21902 6.0579 6.13831 6.2135 0 0.0641696 
6.12418 6.20694 6.28319 0.069689 0.13304 0.190437 6.19903 0 0.0762451 
0.144876 0.206423 0.261531 0.310872 0 0.0841597 0.159004 0.225289 0.283913 
0.335793 0.381792 0.422692 5.86049 5.97231 5.90139 6.09275 6.02165 5.94739 
6.21902 6.15015 6.07676 5.99927 0.0641696 0 6.2135 6.13831 6.0579 
0.190437 0.13304 0.069689 6.28319 6.20694 6.12418 0.310872 0.261531 0.206423 
0.144876 0.0762451 6.28319 6.19903 0.422692 0.381792 0.335793 0.283913 0.225289 
0.159004 0.0841597 0 5.67937 5.70914 5.59016 5.74316 5.61528 5.49102 
5.78235 5.64441 5.50962 5.38246 5.8278 5.67854 5.5315 5.3926 5.26596 
5.88092 5.71897 5.55757 5.40467 5.26596 5.14407 5.94343 5.76745 5.58911 
5.41926 5.26596 5.13292 5.02016 6.01742 5.82633 5.62798 5.43724 5.26596 
5.11955 4.99789 4.89798 1.38521 1.28529 1.26302 1.16363 1.15026 1.13912 
1.01722 1.01722 1.01722 1.01722 0.845941 0.863926 0.878514 0.890581 0.900726 
0.655207 0.694072 0.725619 0.751687 0.773562 0.792164 0.456853 0.515737 0.564217 
0.604649 0.638778 0.667908 0.693022 0.265762 0.339753 0.402264 0.455383 0.500837 
0.540021 0.57405 0.603812 
