# vtk DataFile Version 4.1
vtk output
ASCII
DATASET POLYDATA
POINTS 1002 float
46.7914 94.8894 95.7638 49.9733 97.8934 105.898 43.3095 104.734 92.0736 
45.3685 105.733 104.107 52.6834 101.521 99.8191 50.332 106.89 97.2792 
40.1268 94.4407 103.575 38.5654 100.896 101.928 54.9003 104.223 107.63 
49.0153 101.992 89.6295 43.9096 100.239 108.974 41.6547 97.2888 93.4962 
46.7885 95.5347 96.5113 46.8013 96.2153 97.4487 46.8339 96.8986 98.593 
46.9351 97.4923 99.9025 47.0918 97.9117 101.315 47.4325 98.151 102.707 
48.0063 98.1918 103.813 48.6819 98.091 104.58 49.3525 97.9645 105.228 
47.0731 95.8098 95.9189 47.4362 96.7402 96.1752 47.8521 97.6735 96.5592 
48.3298 98.5488 97.0708 48.8564 99.3677 97.642 49.4693 100.087 98.2175 
50.23 100.607 98.8164 51.1101 100.96 99.3127 51.9503 101.251 99.6289 
46.5176 94.3895 96.0704 46.1895 94.1582 96.4817 45.7989 94.1627 97.0739 
45.2906 94.3283 97.892 44.6262 94.5524 98.8621 43.8482 94.8109 99.9358 
42.9392 94.9615 101.107 41.9111 94.8757 102.172 40.9454 94.6659 102.974 
46.9925 94.9544 95.1725 47.3281 95.1904 94.5528 47.7673 95.6088 93.8731 
48.2136 96.2235 93.0982 48.5503 97.0726 92.3169 48.7394 98.0483 91.6435 
48.8307 99.102 91.0575 48.9048 100.172 90.5238 48.9733 101.14 90.051 
46.6845 93.8177 95.2775 46.5751 92.7468 94.862 46.146 92.1803 94.5818 
45.3368 92.6077 94.2723 44.5656 93.6125 93.9021 43.9257 94.5864 93.6644 
43.2913 95.4463 93.5441 42.6527 96.2056 93.479 42.094 96.8062 93.4596 
50.5083 98.2037 105.513 51.0316 98.5355 105.087 51.4561 98.8693 104.594 
51.8108 99.3543 104.128 52.1018 99.9494 103.645 52.3311 100.419 102.982 
52.5077 100.729 102.164 52.6472 101 101.325 52.7004 101.273 100.553 
49.0192 97.5748 105.788 48.0307 97.1818 105.675 47.0223 96.7608 105.523 
45.9171 96.3826 105.277 44.7643 96.04 105.004 43.6281 95.7269 104.724 
42.529 95.4589 104.402 41.5796 95.1569 104.117 40.8174 94.78 103.893 
50.9238 98.0406 106.394 51.992 98.1784 106.925 53.0404 98.4444 107.455 
53.8765 98.9431 107.971 54.4676 99.6719 108.414 54.9567 100.549 108.666 
55.2175 101.616 108.691 55.2108 102.71 108.488 55.0965 103.563 108.093 
49.9029 97.7422 106.555 49.6346 97.727 107.238 49.121 97.867 107.864 
48.5177 98.0732 108.396 47.7947 98.3327 108.858 46.9181 98.5782 109.212 
45.9903 98.869 109.363 45.1389 99.3264 109.322 44.4575 99.837 109.158 
43.3847 104.963 92.9709 43.4313 105.21 94.078 43.4595 105.449 95.3463 
43.639 105.556 96.7565 43.9662 105.543 98.2292 44.2539 105.568 99.6358 
44.5516 105.614 100.942 44.8599 105.649 102.154 45.1062 105.717 103.248 
43.8501 105.118 91.9241 44.4438 105.521 91.8741 45.0891 105.909 91.981 
45.8264 106.23 92.2802 46.5812 106.525 92.7532 47.3167 106.756 93.4496 
48.0861 106.852 94.393 48.8789 106.883 95.4449 49.64 106.908 96.4355 
42.8525 104.463 92.8073 42.4084 104.128 93.7121 42.0058 103.735 94.769 
41.52 103.352 95.8673 40.9642 102.979 96.9824 40.4562 102.576 98.1391 
39.9664 102.107 99.2776 39.4492 101.637 100.326 38.9823 101.236 101.216 
43.597 104.736 91.1422 43.9233 104.741 90.1489 44.2208 104.787 89.1202 
44.6584 104.788 88.4184 45.5037 104.613 88.2956 46.5647 104.274 88.5401 
47.4151 103.826 88.8089 48.0296 103.268 89.0581 48.542 102.653 89.342 
42.9797 104.291 91.7178 42.6414 103.719 91.4446 42.1665 103.08 91.2505 
41.6359 102.354 91.1476 41.1834 101.465 91.1753 40.8404 100.422 91.3652 
40.7527 99.4068 91.7786 40.9936 98.5372 92.3628 41.3492 97.8277 92.9699 
45.8615 106.106 103.734 46.4235 106.418 103.204 47.0259 106.695 102.568 
47.596 106.973 101.872 48.0918 107.215 101.104 48.5991 107.328 100.192 
49.1354 107.365 99.2563 49.6237 107.317 98.4995 50.0243 107.142 97.8597 
44.6593 105.376 103.984 43.9002 104.984 103.835 43.1152 104.534 103.663 
42.3268 104.023 103.483 41.5218 103.514 103.33 40.7351 102.99 103.161 
40.0385 102.4 102.891 39.4372 101.857 102.585 38.945 101.376 102.268 
46.0379 105.909 104.648 46.8812 105.997 105.136 47.8501 106.012 105.601 
48.9041 105.985 106.11 50.0931 105.859 106.545 51.3041 105.537 106.798 
52.3673 105.131 106.993 53.3168 104.784 107.216 54.1966 104.506 107.44 
45.2541 105.436 104.791 45.153 105.038 105.5 44.994 104.603 106.21 
44.8554 104.057 106.828 44.7457 103.399 107.381 44.5775 102.763 107.881 
44.3989 102.112 108.269 44.2642 101.434 108.579 44.0962 100.823 108.822 
53.0463 101.871 99.4229 53.2891 102.359 99.0044 53.3322 103.052 98.6434 
53.1606 103.899 98.3761 52.8841 104.704 98.135 52.5298 105.419 97.8913 
52.0621 106.025 97.6551 51.4967 106.416 97.4844 50.9061 106.682 97.3725 
53.4332 101.635 100.397 54.231 101.768 100.975 54.8952 102.036 101.639 
55.3949 102.42 102.466 55.6165 102.842 103.42 55.7404 103.218 104.439 
55.8323 103.586 105.601 55.8097 103.952 106.672 55.4754 104.174 107.312 
52.2359 101.574 98.9151 51.826 101.581 97.831 51.4766 101.52 96.5549 
51.1321 101.47 95.222 50.7377 101.52 93.9817 50.433 101.565 92.7096 
50.3446 101.503 91.3701 50.2112 101.534 90.3164 49.7364 101.748 89.7837 
50.8483 107.002 98.3598 51.4885 107.036 99.4759 52.246 107.032 100.647 
53.0173 106.942 101.864 53.6911 106.642 103.048 54.2121 106.242 104.179 
54.5763 105.854 105.203 54.8465 105.386 106.132 54.948 104.786 106.94 
50.1701 106.654 96.1632 50.0058 106.409 94.9545 49.8633 106.101 93.6695 
49.7489 105.723 92.3024 49.7344 105.361 90.9077 49.976 105.029 89.6841 
50.2105 104.474 88.97 50.0548 103.625 88.8855 49.533 102.746 89.254 
39.2308 94.3481 103.567 38.3456 94.502 103.47 37.6491 94.9537 103.366 
37.3248 95.7265 103.305 37.2721 96.7482 103.177 37.3048 97.8883 102.88 
37.4172 98.9043 102.537 37.6984 99.6855 102.279 38.1168 100.335 102.096 
39.843 94.5668 104.351 39.644 94.8276 105.162 39.5592 95.2255 105.985 
39.6376 95.7301 106.794 39.9269 96.3578 107.515 40.4564 97.1124 108.079 
41.2264 97.9609 108.499 42.1391 98.8135 108.778 43.0701 99.586 108.912 
39.9738 94.4533 102.741 39.9423 94.7419 101.807 40.2465 95.1728 100.818 
40.736 95.4755 99.7096 41.1378 95.7157 98.4833 41.4159 95.9904 97.333 
41.6347 96.2824 96.2996 41.7345 96.6102 95.3024 41.7239 96.9553 94.3691 
38.4113 100.848 102.828 38.3686 100.77 103.844 38.4644 100.689 104.953 
38.6685 100.621 106.026 39.0949 100.524 106.897 39.8561 100.382 107.518 
40.8268 100.265 107.989 41.8369 100.21 108.386 42.8838 100.213 108.716 
38.5316 100.584 101.131 38.6049 100.23 100.278 38.7694 99.8361 99.3818 
39.0322 99.4019 98.4663 39.426 98.894 97.5341 39.8981 98.4408 96.5825 
40.3417 98.1069 95.6176 40.8059 97.8164 94.7875 41.275 97.5468 94.1143 
54.3698 103.898 108.174 53.6878 103.57 108.695 52.7015 103.201 109.045 
51.452 102.836 109.189 50.2263 102.48 109.3 48.9559 102.065 109.485 
47.4959 101.607 109.571 46.1676 101.124 109.416 45.0144 100.655 109.171 
48.1972 101.675 89.8356 47.3855 101.215 90.0583 46.4818 100.663 90.3363 
45.3942 100.069 90.6317 44.4944 99.3872 90.8801 43.69 98.6729 91.1197 
42.7556 98.0271 91.3356 42.0626 97.5696 91.7753 41.7862 97.3594 92.5812 
47.1117 96.4178 96.7713 47.4637 97.3602 97.1791 47.1496 97.0945 97.8689 
47.916 98.2635 97.7173 47.5789 97.974 98.4238 47.285 97.6998 99.1704 
48.4773 99.0972 98.3256 48.1461 98.7854 99.0644 47.8445 98.4619 99.8587 
47.4737 98.1871 100.618 49.1071 99.8546 98.969 48.7752 99.5723 99.7915 
48.462 99.2543 100.648 48.1011 98.9343 101.463 47.735 98.5779 102.136 
49.8525 100.45 99.6139 49.4909 100.248 100.51 49.1706 99.9784 101.409 
48.872 99.6388 102.247 48.5915 99.2196 102.943 48.334 98.7042 103.41 
50.7927 100.823 100.15 50.454 100.662 101.052 50.1486 100.426 101.939 
49.8977 100.061 102.703 49.6943 99.5821 103.367 49.4991 99.0345 103.851 
49.1313 98.5558 104.243 51.8032 101.058 100.423 51.5796 100.872 101.303 
51.3477 100.63 102.169 51.1346 100.269 102.903 50.9226 99.7414 103.482 
50.6878 99.1766 103.984 50.3565 98.7328 104.446 49.8676 98.3539 104.857 
47.3158 95.9595 95.3241 47.6592 96.2822 94.6907 47.7442 96.9697 95.5388 
48.1502 96.7058 93.9565 48.106 97.3317 94.8482 48.2196 97.9304 95.8749 
48.6705 97.2632 93.087 48.5501 97.769 94.0789 48.5886 98.2796 95.1418 
48.7106 98.813 96.3784 49.1245 97.9548 92.1921 49.0531 98.2777 93.1774 
49.0057 98.7244 94.3661 49.1115 99.1684 95.6346 49.2576 99.6541 96.9527 
49.4592 98.8013 91.4135 49.5473 98.9084 92.2546 49.4639 99.2598 93.4952 
49.5423 99.6246 94.8321 49.7066 100.003 96.1893 49.9242 100.357 97.5364 
49.6714 99.785 90.7636 49.956 99.6919 91.4591 49.8862 99.9078 92.669 
49.9283 100.163 94.034 50.1401 100.404 95.3855 50.4082 100.658 96.7815 
50.7264 100.849 98.1327 49.7334 100.801 90.2404 50.173 100.589 90.8313 
50.2001 100.673 91.9687 50.2457 100.815 93.3345 50.4993 100.895 94.6368 
50.8252 101.014 95.9742 51.1529 101.163 97.3621 51.5232 101.242 98.6041 
50.1423 102.563 89.6116 50.3678 103.535 89.7082 50.3723 102.45 90.5739 
50.2832 104.334 90.3991 50.3946 103.404 91.2316 50.4458 102.416 91.9992 
50.0913 104.809 91.4802 50.3819 104.059 92.1874 50.6138 103.172 92.7977 
50.7684 102.293 93.3757 50.1108 105.233 92.701 50.4554 104.585 93.2358 
50.818 103.811 93.6866 51.1318 102.951 94.12 51.2577 102.118 94.64 
50.2895 105.695 93.9652 50.6948 105.134 94.3487 51.1151 104.482 94.6856 
51.4715 103.707 95.0507 51.6814 102.806 95.4966 51.6948 102.032 95.997 
50.4944 106.092 95.182 50.964 105.616 95.4681 51.4745 105.029 95.7242 
51.8945 104.381 96.0216 52.1086 103.542 96.4217 52.1825 102.659 96.8515 
52.0917 102.008 97.3201 50.7114 106.412 96.3135 51.2437 106.06 96.5046 
51.77 105.524 96.7269 52.2415 104.88 96.9678 52.5401 104.151 97.2784 
52.6983 103.28 97.6212 52.7222 102.494 97.9989 52.5455 101.956 98.4544 
53.7775 102.1 100.048 53.9568 102.744 99.6799 54.4771 102.411 100.692 
53.8801 103.602 99.4095 54.539 103.253 100.426 55.076 102.837 101.416 
53.605 104.507 99.2252 54.4186 104.223 100.215 55.1316 103.811 101.177 
55.5749 103.323 102.248 53.2517 105.317 99.0228 54.0996 105.131 100.056 
54.9818 104.843 100.954 55.631 104.395 101.983 55.8381 103.819 103.193 
52.8085 105.99 98.7692 53.6328 105.865 99.8886 54.5364 105.691 100.873 
55.3324 105.417 101.834 55.7753 104.91 103.04 55.8546 104.289 104.35 
[...]
POINT_DATA 1002
SCALARS Color_Map_Phi float
LOOKUP_TABLE default
6.28319 3.14159 6.28319 3.14159 4.71239 4.71239 1.5708 1.5708 3.69517 
5.72961 2.58802 0.553574 6.28319 6.28319 6.28319 6.28319 3.14159 3.14159 
3.14159 3.14159 3.14159 6.1053 5.8988 5.67687 5.45995 5.26596 5.10322 
4.97131 4.86569 4.78095 0.177881 0.384387 0.606312 0.823235 1.01722 1.17997 
1.31187 1.4175 1.50223 6.18928 6.10703 6.03531 5.97283 5.91832 5.87061 
5.82869 5.79168 5.75886 0.0939024 0.176153 0.247873 0.310351 0.364864 0.412573 
0.454497 0.491504 0.524326 3.31947 3.52598 3.7479 3.96483 4.15881 4.32156 
4.45346 4.55909 4.64383 2.96371 2.75721 2.53528 2.31836 2.12437 1.96162 
1.82972 1.72409 1.63936 3.2355 3.31775 3.38947 3.45194 3.50646 3.55417 
3.59609 3.6331 3.66592 3.04769 2.96544 2.89372 2.83124 2.77673 2.72902 
2.6871 2.65009 2.61727 6.28319 6.28319 6.28319 6.28319 3.14159 3.14159 
3.14159 3.14159 3.14159 6.1053 5.8988 5.67687 5.45995 5.26596 5.10322 
4.97131 4.86569 4.78095 0.177881 0.384387 0.606312 0.823235 1.01722 1.17997 
1.31187 1.4175 1.50223 6.18928 6.10703 6.03531 5.97283 5.91832 5.87061 
5.82869 5.79168 5.75886 0.0939024 0.176153 0.247873 0.310351 0.364864 0.412573 
0.454497 0.491504 0.524326 3.31947 3.52598 3.7479 3.96483 4.15881 4.32156 
4.45346 4.55909 4.64383 2.96371 2.75721 2.53528 2.31836 2.12437 1.96162 
1.82972 1.72409 1.63936 3.2355 3.31775 3.38947 3.45194 3.50646 3.55417 
3.59609 3.6331 3.66592 3.04769 2.96544 2.89372 2.83124 2.77673 2.72902 
2.6871 2.65009 2.61727 4.71239 4.71239 4.71239 4.71239 4.71239 4.71239 
4.71239 4.71239 4.71239 4.60879 4.49914 4.3857 4.27128 4.15881 4.05096 
3.94976 3.85646 3.77161 4.81599 4.92564 5.03907 5.1535 5.26596 5.37381 
5.47502 5.56831 5.65317 4.60879 4.49914 4.3857 4.27128 4.15881 4.05096 
3.94976 3.85646 3.77161 4.81599 4.92564 5.03907 5.1535 5.26596 5.37381 
5.47502 5.56831 5.65317 1.5708 1.5708 1.5708 1.5708 1.5708 1.5708 
1.5708 1.5708 1.5708 1.6744 1.78405 1.89748 2.01191 2.12437 2.23222 
2.33343 2.42672 2.51157 1.4672 1.35755 1.24411 1.12969 1.01722 0.909371 
0.808166 0.714871 0.63002 1.6744 1.78405 1.89748 2.01191 2.12437 2.23222 
2.33343 2.42672 2.51157 1.4672 1.35755 1.24411 1.12969 1.01722 0.909371 
0.808166 0.714871 0.63002 3.60077 3.49669 3.38395 3.26458 3.14159 3.01861 
2.89924 2.78649 2.68241 5.82401 5.92808 6.04083 6.1602 6.28319 0.122983 
0.242354 0.355101 0.459179 6.05603 5.78856 5.97021 5.51259 5.60297 5.78856 
5.26596 5.26596 5.26596 5.26596 5.06749 5.0121 4.91556 4.71239 4.15881 
4.91556 4.83537 4.71239 4.50922 4.15881 3.63622 4.80045 4.71239 4.58941 
4.41268 4.15881 3.82181 3.45456 4.71239 4.62433 4.50922 4.35729 4.15881 
3.91219 3.63622 3.36875 6.01742 5.94343 5.82633 5.88092 5.76745 5.62798 
5.8278 5.71897 5.58911 5.43724 5.78235 5.67854 5.55757 5.41926 5.26596 
5.74316 5.64441 5.5315 5.40467 5.26596 5.11955 5.70914 5.61528 5.50962 
5.3926 5.26596 5.13292 4.99789 5.67937 5.59016 5.49102 5.38246 5.26596 
5.14407 5.02016 4.89798 5.56831 5.47502 5.47502 5.37381 5.37381 5.37381 
5.26596 5.26596 5.26596 5.26596 5.1535 5.1535 5.1535 5.1535 5.1535 
5.03907 5.03907 5.03907 5.03907 5.03907 5.03907 4.92564 4.92564 4.92564 
4.92564 4.92564 4.92564 4.92564 4.81599 4.81599 4.81599 4.81599 4.81599 
4.81599 4.81599 4.81599 4.60879 4.60879 4.49914 4.60879 4.49914 4.3857 
4.60879 4.49914 4.3857 4.27128 4.60879 4.49914 4.3857 4.27128 4.15881 
4.60879 4.49914 4.3857 4.27128 4.15881 4.05096 4.60879 4.49914 4.3857 
4.27128 4.15881 4.05096 3.94976 4.60879 4.49914 4.3857 4.27128 4.15881 
4.05096 3.94976 3.85646 4.5268 4.40462 4.42689 4.28071 4.29185 4.30523 
4.15881 4.15881 4.15881 4.15881 4.04232 4.03217 4.02011 4.00552 3.98753 
3.93376 3.91515 3.89328 3.86721 3.83566 3.7968 3.83461 3.8095 3.78037 
3.74624 3.70581 3.65733 3.59845 3.7454 3.71564 3.68161 3.64243 3.59698 
3.54386 3.48135 3.40735 3.56428 3.45246 3.52338 3.33203 3.40312 3.47739 
3.20576 3.27463 3.34802 3.42551 3.07742 3.14159 3.21128 3.28647 3.36688 
2.95116 3.00855 3.0719 3.14159 3.21784 3.3006 2.83072 2.88006 2.93517 
2.99672 3.06535 3.14159 3.22575 2.7189 2.7598 2.8058 2.85768 2.9163 
2.98259 3.05743 3.14159 3.56428 3.52338 3.45246 3.47739 3.40312 3.33203 
3.42551 3.34802 3.27463 3.20576 3.36688 3.28647 3.21128 3.14159 3.07742 
3.3006 3.21784 3.14159 3.0719 3.00855 2.95116 3.22575 3.14159 3.06535 
2.99672 2.93517 2.88006 2.83072 3.14159 3.05743 2.98259 2.9163 2.85768 
2.8058 2.7598 2.7189 4.5268 4.42689 4.40462 4.30523 4.29185 4.28071 
4.15881 4.15881 4.15881 4.15881 3.98753 4.00552 4.02011 4.03217 4.04232 
3.7968 3.83566 3.86721 3.89328 3.91515 3.93376 3.59845 3.65733 3.70581 
3.74624 3.78037 3.8095 3.83461 3.40735 3.48135 3.54386 3.59698 3.64243 
3.68161 3.71564 3.7454 4.71239 4.80045 4.62433 4.91556 4.71239 4.50922 
5.06749 4.83537 4.58941 4.35729 5.26596 5.0121 4.71239 4.41268 4.15881 
5.51259 5.26596 4.91556 4.50922 4.15881 3.91219 5.78856 5.60297 5.26596 
4.71239 4.15881 3.82181 3.63622 6.05603 5.97021 5.78856 5.26596 4.15881 
3.63622 3.45456 3.36875 0.227158 0.494626 0.312971 0.770593 0.680215 0.494626 
1.01722 1.01722 1.01722 1.01722 1.2157 1.27109 1.36763 1.5708 2.12437 
1.36763 1.44781 1.5708 1.77397 2.12437 2.64697 1.48273 1.5708 1.69378 
1.8705 2.12437 2.46138 2.82862 1.5708 1.65886 1.77397 1.9259 2.12437 
2.371 2.64697 2.91443 1.75639 1.87857 1.8563 2.00248 1.99133 1.97796 
2.12437 2.12437 2.12437 2.12437 2.24087 2.25101 2.26308 2.27767 2.29565 
2.34943 2.36803 2.38991 2.41597 2.44752 2.48639 2.44857 2.47368 2.50281 
2.53694 2.57738 2.62586 2.68474 2.53778 2.56754 2.60157 2.64076 2.68621 
2.73933 2.80184 2.87583 1.6744 1.6744 1.78405 1.6744 1.78405 1.89748 
1.6744 1.78405 1.89748 2.01191 1.6744 1.78405 1.89748 2.01191 2.12437 
1.6744 1.78405 1.89748 2.01191 2.12437 2.23222 1.6744 1.78405 1.89748 
2.01191 2.12437 2.23222 2.33343 1.6744 1.78405 1.89748 2.01191 2.12437 
2.23222 2.33343 2.42672 1.4672 1.35755 1.4672 1.24411 1.35755 1.4672 
1.12969 1.24411 1.35755 1.4672 1.01722 1.12969 1.24411 1.35755 1.4672 
0.909371 1.01722 1.12969 1.24411 1.35755 1.4672 0.808166 0.909371 1.01722 
1.12969 1.24411 1.35755 1.4672 0.714871 0.808166 0.909371 1.01722 1.12969 
1.24411 1.35755 1.4672 0.603812 0.57405 0.693022 0.540021 0.667908 0.792164 
0.500837 0.638778 0.773562 0.900726 0.455383 0.604649 0.751687 0.890581 1.01722 
0.402264 0.564217 0.725619 0.878514 1.01722 1.13912 0.339753 0.515737 0.694072 
0.863926 1.01722 1.15026 1.26302 0.265762 0.456853 0.655207 0.845941 1.01722 
1.16363 1.28529 1.38521 0.227158 0.312971 0.494626 0.494626 0.680215 0.770593 
1.01722 1.01722 1.01722 1.01722 2.12437 1.5708 1.36763 1.27109 1.2157 
2.64697 2.12437 1.77397 1.5708 1.44781 1.36763 2.82862 2.46138 2.12437 
1.8705 1.69378 1.5708 1.48273 2.91443 2.64697 2.371 2.12437 1.9259 
1.77397 1.65886 1.5708 1.75639 1.8563 1.87857 1.97796 1.99133 2.00248 
2.12437 2.12437 2.12437 2.12437 2.29565 2.27767 2.26308 2.25101 2.24087 
2.48639 2.44752 2.41597 2.38991 2.36803 2.34943 2.68474 2.62586 2.57738 
2.53694 2.50281 2.47368 2.44857 2.87583 2.80184 2.73933 2.68621 2.64076 
2.60157 2.56754 2.53778 5.86049 5.90139 5.97231 5.94739 6.02165 6.09275 
5.99927 6.07676 6.15015 6.21902 6.0579 6.13831 6.2135 0 0.0641696 
6.12418 6.20694 6.28319 0.069689 0.13304 0.190437 6.19903 0 0.0762451 
0.144876 0.206423 0.261531 0.310872 0 0.0841597 0.159004 0.225289 0.283913 
0.335793 0.381792 0.422692 5.86049 5.97231 5.90139 6.09275 6.02165 5.94739 
6.21902 6.15015 6.07676 5.99927 0.0641696 0 6.2135 6.13831 6.0579 
0.190437 0.13304 0.069689 6.28319 6.20694 6.12418 0.310872 0.261531 0.206423 
0.144876 0.0762451 6.28319 6.19903 0.422692 0.381792 0.335793 0.283913 0.225289 
0.159004 0.0841597 0 5.67937 5.70914 5.59016 5.74316 5.61528 5.49102 
5.78235 5.64441 5.50962 5.38246 5.8278 5.67854 5.5315 5.3926 5.26596 
5.88092 5.71897 5.55757 5.40467 5.26596 5.14407 5.94343 5.76745 5.58911 
5.41926 5.26596 5.13292 5.02016 6.01742 5.82633 5.62798 5.43724 5.26596 
5.11955 4.99789 4.89798 1.38521 1.28529 1.26302 1.16363 1.15026 1.13912 
1.01722 1.01722 1.01722 1.01722 0.845941 0.863926 0.878514 0.890581 0.900726 
0.655207 0.694072 0.725619 0.751687 0.773562 0.792164 0.456853 0.515737 0.564217 
0.604649 0.638778 0.667908 0.693022 0.265762 0.339753 0.402264 0.455383 0.500837 
0.540021 0.57405 0.603812 
