# vtk DataFile Version 4.1
vtk output
ASCII
DATASET POLYDATA
POINTS 1002 float
47.0158 95.5811 95.4774 49.0596 100.56 104.569 42.349 103.64 93.7548 
44.3448 105.833 102.955 53.4949 102.128 98.1356 49.8368 106.355 96.7287 
41.2579 95.6826 103.422 36.8999 100.859 101.863 53.9664 105.433 106.036 
48.1434 100.992 90.0899 43.0785 101.641 108.506 41.6073 97.1409 94.5388 
46.9381 96.4111 96.0254 46.845 97.3005 96.691 46.8166 98.1389 97.4827 
46.9263 98.8328 98.4416 47.1458 99.3852 99.5467 47.4685 99.7977 100.692 
47.8653 100.085 101.864 48.2356 100.335 102.972 48.6262 100.506 103.858 
47.2933 96.3903 95.4823 47.6736 97.2203 95.5255 48.1757 98.0489 95.6428 
48.7832 98.8559 95.8993 49.4937 99.5936 96.2845 50.2925 100.239 96.741 
51.1404 100.793 97.2025 51.9998 101.292 97.5951 52.8169 101.733 97.8899 
46.7094 95.3456 95.833 46.355 95.3436 96.325 45.975 95.5003 96.9895 
45.452 95.75 97.8044 44.8018 96.0116 98.7752 44.1071 96.2462 99.827 
43.3348 96.3777 100.941 42.532 96.2721 102.046 41.8393 95.9667 102.902 
47.2512 95.3149 94.98 47.5328 95.3094 94.407 47.9865 95.4625 93.756 
48.4721 95.8001 93.0882 48.6654 96.4876 92.4326 48.5496 97.4759 91.8264 
48.3777 98.5177 91.3257 48.2761 99.4445 90.9038 48.2055 100.258 90.4913 
46.9328 94.4365 95.2061 46.7768 93.2637 94.9934 46.3534 92.5187 94.7908 
45.6306 92.7843 94.5128 44.8567 93.7394 94.2212 44.1326 94.6684 94.0714 
43.3957 95.4211 94.0704 42.7125 96.1085 94.1658 42.1285 96.6846 94.3389 
49.5431 100.864 104.159 50.1405 101.091 103.69 50.816 101.258 103.191 
51.4853 101.432 102.664 52.0952 101.605 102.039 52.5891 101.755 101.292 
52.969 101.884 100.503 53.2853 101.955 99.6949 53.479 102.005 98.8741 
48.3354 100.186 104.522 47.4808 99.7984 104.418 46.5462 99.3822 104.274 
45.7066 98.8121 104.159 44.9421 98.1498 104.062 44.1577 97.5775 103.959 
43.4081 97.0499 103.883 42.7288 96.4621 103.808 42.013 95.96 103.648 
49.8465 100.753 105.041 50.7487 100.968 105.601 51.6811 101.28 106.14 
52.5495 101.709 106.536 53.3062 102.243 106.798 53.935 102.899 106.959 
54.3401 103.67 106.951 54.4409 104.417 106.738 54.288 105.004 106.402 
49.0262 100.36 105.257 48.8478 100.224 106.035 48.4377 100.23 106.79 
47.8394 100.337 107.437 47.1431 100.459 107.987 46.3444 100.548 108.433 
45.3936 100.665 108.725 44.3962 100.931 108.819 43.6025 101.313 108.74 
42.4484 103.904 94.5525 42.5153 104.233 95.4 42.592 104.583 96.3303 
42.7255 104.882 97.3564 42.8556 105.219 98.3631 43.0235 105.543 99.3603 
43.2852 105.731 100.413 43.5955 105.83 101.426 43.9455 105.872 102.279 
42.8755 103.992 93.5793 43.4623 104.381 93.4694 44.1319 104.766 93.4817 
44.8663 105.132 93.637 45.68 105.488 93.9312 46.568 105.808 94.3511 
47.4591 106.068 94.8719 48.3019 106.249 95.4693 49.1035 106.331 96.1155 
41.8595 103.465 94.4447 41.292 103.273 95.195 40.7097 103.03 96.0226 
40.1241 102.732 96.9361 39.4937 102.42 97.8766 38.8445 102.105 98.7711 
38.2126 101.786 99.5908 37.6262 101.485 100.353 37.1743 101.184 101.116 
42.5746 103.588 92.8454 42.8867 103.485 91.927 43.2708 103.349 90.9999 
43.658 103.208 90.0571 44.1949 103.023 89.3677 45.0481 102.723 89.201 
46.0515 102.33 89.4169 46.8957 101.916 89.6564 47.5614 101.47 89.8524 
41.9773 103.238 93.4285 41.6429 102.693 93.1915 41.3411 102.027 93.0518 
41.0553 101.302 92.971 40.8226 100.457 92.9826 40.7051 99.4886 93.1406 
40.7755 98.6334 93.4358 41.0174 98.0307 93.8311 41.3146 97.5626 94.2193 
44.8841 106.116 102.499 45.4665 106.402 101.997 46.0996 106.7 101.387 
46.6819 106.98 100.667 47.2344 107.155 99.8252 47.9051 107.21 98.9425 
48.5846 107.153 98.1983 49.1064 106.95 97.6474 49.4998 106.648 97.1869 
43.4968 105.592 103.034 42.569 105.28 103.088 41.6898 104.861 103.055 
40.8462 104.352 102.959 39.9476 103.806 102.841 39.1247 103.233 102.699 
38.439 102.613 102.521 37.8091 101.957 102.298 37.2648 101.367 102.076 
45.1391 105.92 103.303 45.9915 106.039 103.716 46.9225 106.197 104.172 
47.946 106.303 104.624 49.0444 106.369 105.078 50.1801 106.427 105.505 
51.296 106.334 105.806 52.3206 106.054 105.946 53.2134 105.737 106.005 
44.2642 105.584 103.631 44.1224 105.323 104.363 43.9398 105.053 105.096 
43.7784 104.678 105.793 43.6451 104.226 106.453 43.5061 103.756 107.045 
43.383 103.232 107.542 43.2926 102.698 107.959 43.1906 102.188 108.295 
53.7819 102.49 97.8537 53.9302 103.011 97.5913 53.9268 103.709 97.3498 
53.711 104.45 97.1575 53.2103 104.999 97.062 52.5094 105.336 97.0192 
51.7813 105.66 96.937 51.1073 105.967 96.8451 50.4687 106.186 96.7865 
54.175 102.397 98.817 54.8343 102.705 99.5905 55.4026 103.036 100.458 
55.9041 103.426 101.448 56.2414 103.89 102.541 56.2325 104.308 103.621 
55.9013 104.661 104.542 55.3818 105.003 105.217 54.7258 105.274 105.677 
53.0139 102.055 97.287 52.4799 101.948 96.362 51.9663 101.745 95.2851 
51.4706 101.539 94.1213 50.9717 101.382 93.0178 50.5596 101.163 91.9319 
50.226 100.935 90.9478 49.7388 100.85 90.3405 48.9933 100.905 90.1276 
50.3635 106.527 97.6022 50.9688 106.68 98.4819 51.622 106.751 99.4249 
52.2437 106.713 100.51 52.8224 106.614 101.654 53.3424 106.447 102.738 
53.7026 106.203 103.744 53.9038 105.954 104.653 54.0028 105.708 105.414 
49.7045 106.068 95.859 49.5077 105.712 94.9233 49.2999 105.277 93.9037 
49.1264 104.764 92.8359 48.957 104.204 91.8388 48.8703 103.652 90.8895 
48.9214 103.064 90.065 48.9123 102.378 89.6371 48.6231 101.665 89.7211 
40.3735 95.4903 103.502 39.3314 95.3481 103.591 38.2113 95.3497 103.665 
37.3043 95.742 103.627 36.7733 96.4814 103.47 36.4522 97.4141 103.229 
36.2973 98.4879 102.9 36.3577 99.5043 102.524 36.5916 100.292 102.176 
41.1081 95.7654 103.991 40.9021 96.1435 104.652 40.8051 96.5812 105.318 
40.8533 97.142 105.913 40.9812 97.894 106.503 41.1867 98.6139 107.143 
41.4989 99.2845 107.75 41.9257 100.081 108.183 42.4766 100.918 108.405 
40.8262 95.7342 102.935 40.4222 95.9561 102.333 40.2481 96.1672 101.475 
40.3748 96.2832 100.367 40.6608 96.3662 99.1857 40.9676 96.4739 98.0692 
41.2434 96.5888 97.0363 41.4304 96.7062 96.0847 41.5355 96.8913 95.2563 
36.9797 100.802 102.707 37.2596 100.739 103.526 37.6922 100.746 104.345 
38.1667 100.821 105.217 38.7415 100.962 105.997 39.5129 101.154 106.684 
40.3786 101.303 107.319 41.2813 101.398 107.806 42.2095 101.51 108.176 
36.7815 100.495 101.156 36.8298 99.9714 100.406 37.0961 99.435 99.7345 
37.5391 98.9533 99.0199 38.09 98.4786 98.2212 38.7613 98.0851 97.449 
39.5251 97.8068 96.6989 40.2866 97.5779 95.925 40.9977 97.3674 95.1974 
53.3631 105.32 106.621 52.5917 105.163 107.179 51.5829 104.911 107.605 
50.3222 104.554 107.944 48.988 104.174 108.319 47.703 103.764 108.629 
46.3681 103.232 108.774 45.0941 102.666 108.813 44.0113 102.137 108.711 
47.3213 100.596 90.3248 46.5331 100.108 90.5294 45.7041 99.5673 90.7656 
44.805 99.0297 91.1172 43.9637 98.48 91.4344 43.1459 97.8501 91.6378 
42.4701 97.3044 92.0116 42.0949 97.0736 92.7406 41.8832 97.091 93.6639 
47.285 97.1841 96.1078 47.762 97.9617 96.2772 47.2876 98.0202 96.8617 
48.3524 98.7518 96.5297 47.9116 98.7147 97.1714 47.381 98.7828 97.7559 
49.0409 99.5134 96.8821 48.6331 99.4209 97.5609 48.1437 99.3984 98.1944 
47.594 99.4195 98.8232 49.8571 100.189 97.3333 49.412 100.108 97.9988 
48.9612 100.038 98.7036 48.4091 100.018 99.3463 47.8883 99.9508 100 
50.7845 100.751 97.8472 50.3243 100.702 98.4949 49.8428 100.627 99.2097 
49.3036 100.589 99.9085 48.7414 100.51 100.548 48.2717 100.331 101.201 
51.7448 101.219 98.3209 51.3592 101.179 99.0107 50.8984 101.093 99.7004 
50.3633 101.029 100.414 49.7513 100.966 101.084 49.1692 100.822 101.723 
48.6711 100.607 102.368 52.6664 101.635 98.6546 52.3682 101.593 99.4295 
51.9901 101.5 100.156 51.5305 101.382 100.88 50.9308 101.295 101.579 
50.2649 101.178 102.199 49.6323 101.019 102.788 49.0801 100.803 103.358 
47.5295 96.2878 94.9178 47.9097 96.3118 94.2994 47.9832 97.2019 94.9047 
48.4815 96.4118 93.664 48.4408 97.2545 94.3185 48.571 98.0829 95.0333 
48.9955 96.7405 92.9515 48.972 97.4197 93.6828 49.0164 98.2081 94.4451 
49.2202 98.9353 95.3065 49.2506 97.3914 92.1599 49.4829 97.7494 92.8675 
49.488 98.4295 93.7252 49.639 99.1239 94.6301 49.93 99.7185 95.6742 
49.2768 98.2795 91.4388 49.8724 98.2922 91.9742 50.0202 98.7177 92.8898 
50.0962 99.3709 93.8677 50.3309 99.956 94.9343 50.6958 100.413 96.1029 
49.1983 99.2315 90.8997 49.9952 99.0944 91.2117 50.366 99.2539 92.0712 
50.5108 99.7211 93.1505 50.7341 100.257 94.2164 51.0712 100.698 95.3798 
51.5117 101.034 96.5509 49.1013 100.114 90.4913 49.9074 100.002 90.6823 
50.3783 100.078 91.39 50.6395 100.364 92.4816 50.9669 100.711 93.59 
51.3693 101.053 94.7182 51.8154 101.367 95.8876 52.314 101.588 96.9516 
49.3895 101.636 89.945 49.4875 102.452 90.2479 49.9307 101.707 90.5382 
49.4654 103.206 90.9605 49.9774 102.605 91.1787 50.3416 101.909 91.4881 
49.5461 103.835 91.8476 50.0922 103.362 92.0007 50.564 102.783 92.24 
50.8534 102.116 92.5616 49.7265 104.421 92.8233 50.2977 104.016 92.9265 
50.8345 103.539 93.1082 51.2668 102.93 93.3316 51.4586 102.212 93.6639 
49.9036 104.994 93.8761 50.5195 104.632 93.9428 51.1049 104.233 94.0825 
51.6308 103.719 94.2566 51.9541 103.006 94.5098 52.0342 102.286 94.8775 
50.1013 105.486 94.9168 50.7209 105.17 94.9662 51.3683 104.814 95.0701 
51.9891 104.418 95.1956 52.4336 103.796 95.3932 52.6089 103.037 95.7001 
52.6087 102.408 96.0391 50.32 105.877 95.8813 50.9342 105.609 95.9309 
51.5958 105.267 96.0204 52.2957 104.933 96.1053 52.8938 104.48 96.2098 
53.2152 103.775 96.4245 53.2861 103.042 96.7137 53.2128 102.478 96.9996 
54.4702 102.832 98.5429 54.5699 103.477 98.3099 55.0711 103.242 99.3462 
54.44 104.253 98.1344 55.0405 103.96 99.1823 55.512 103.691 100.285 
54.0325 104.939 98.0286 54.7366 104.706 99.093 55.3264 104.447 100.233 
55.841 104.207 101.382 53.3669 105.382 97.9865 54.1607 105.287 99.0273 
54.862 105.108 100.199 55.4764 104.929 101.381 55.9494 104.656 102.498 
52.5818 105.726 97.9212 53.3958 105.713 98.9372 54.1494 105.62 100.071 
54.8441 105.488 101.275 55.3816 105.252 102.384 55.7191 104.937 103.471 
[...]
POINT_DATA 1002
SCALARS Color_Map_Phi float
LOOKUP_TABLE default
6.28319 3.14159 6.28319 3.14159 4.71239 4.71239 1.5708 1.5708 3.69517 
5.72961 2.58802 0.553574 6.28319 6.28319 6.28319 6.28319 3.14159 3.14159 
3.14159 3.14159 3.14159 6.1053 5.8988 5.67687 5.45995 5.26596 5.10322 
4.97131 4.86569 4.78095 0.177881 0.384387 0.606312 0.823235 1.01722 1.17997 
1.31187 1.4175 1.50223 6.18928 6.10703 6.03531 5.97283 5.91832 5.87061 
5.82869 5.79168 5.75886 0.0939024 0.176153 0.247873 0.310351 0.364864 0.412573 
0.454497 0.491504 0.524326 3.31947 3.52598 3.7479 3.96483 4.15881 4.32156 
4.45346 4.55909 4.64383 2.96371 2.75721 2.53528 2.31836 2.12437 1.96162 
1.82972 1.72409 1.63936 3.2355 3.31775 3.38947 3.45194 3.50646 3.55417 
3.59609 3.6331 3.66592 3.04769 2.96544 2.89372 2.83124 2.77673 2.72902 
2.6871 2.65009 2.61727 6.28319 6.28319 6.28319 6.28319 3.14159 3.14159 
3.14159 3.14159 3.14159 6.1053 5.8988 5.67687 5.45995 5.26596 5.10322 
4.97131 4.86569 4.78095 0.177881 0.384387 0.606312 0.823235 1.01722 1.17997 
1.31187 1.4175 1.50223 6.18928 6.10703 6.03531 5.97283 5.91832 5.87061 
5.82869 5.79168 5.75886 0.0939024 0.176153 0.247873 0.310351 0.364864 0.412573 
0.454497 0.491504 0.524326 3.31947 3.52598 3.7479 3.96483 4.15881 4.32156 
4.45346 4.55909 4.64383 2.96371 2.75721 2.53528 2.31836 2.12437 1.96162 
1.82972 1.72409 1.63936 3.2355 3.31775 3.38947 3.45194 3.50646 3.55417 
3.59609 3.6331 3.66592 3.04769 2.96544 2.89372 2.83124 2.77673 2.72902 
2.6871 2.65009 2.61727 4.71239 4.71239 4.71239 4.71239 4.71239 4.71239 
4.71239 4.71239 4.71239 4.60879 4.49914 4.3857 4.27128 4.15881 4.05096 
3.94976 3.85646 3.77161 4.81599 4.92564 5.03907 5.1535 5.26596 5.37381 
5.47502 5.56831 5.65317 4.60879 4.49914 4.3857 4.27128 4.15881 4.05096 
3.94976 3.85646 3.77161 4.81599 4.92564 5.03907 5.1535 5.26596 5.37381 
5.47502 5.56831 5.65317 1.5708 1.5708 1.5708 1.5708 1.5708 1.5708 
1.5708 1.5708 1.5708 1.6744 1.78405 1.89748 2.01191 2.12437 2.23222 
2.33343 2.42672 2.51157 1.4672 1.35755 1.24411 1.12969 1.01722 0.909371 
0.808166 0.714871 0.63002 1.6744 1.78405 1.89748 2.01191 2.12437 2.23222 
2.33343 2.42672 2.51157 1.4672 1.35755 1.24411 1.12969 1.01722 0.909371 
0.808166 0.714871 0.63002 3.60077 3.49669 3.38395 3.26458 3.14159 3.01861 
2.89924 2.78649 2.68241 5.82401 5.92808 6.04083 6.1602 6.28319 0.122983 
0.242354 0.355101 0.459179 6.05603 5.78856 5.97021 5.51259 5.60297 5.78856 
5.26596 5.26596 5.26596 5.26596 5.06749 5.0121 4.91556 4.71239 4.15881 
4.91556 4.83537 4.71239 4.50922 4.15881 3.63622 4.80045 4.71239 4.58941 
4.41268 4.15881 3.82181 3.45456 4.71239 4.62433 4.50922 4.35729 4.15881 
3.91219 3.63622 3.36875 6.01742 5.94343 5.82633 5.88092 5.76745 5.62798 
5.8278 5.71897 5.58911 5.43724 5.78235 5.67854 5.55757 5.41926 5.26596 
5.74316 5.64441 5.5315 5.40467 5.26596 5.11955 5.70914 5.61528 5.50962 
5.3926 5.26596 5.13292 4.99789 5.67937 5.59016 5.49102 5.38246 5.26596 
5.14407 5.02016 4.89798 5.56831 5.47502 5.47502 5.37381 5.37381 5.37381 
5.26596 5.26596 5.26596 5.26596 5.1535 5.1535 5.1535 5.1535 5.1535 
5.03907 5.03907 5.03907 5.03907 5.03907 5.03907 4.92564 4.92564 4.92564 
4.92564 4.92564 4.92564 4.92564 4.81599 4.81599 4.81599 4.81599 4.81599 
4.81599 4.81599 4.81599 4.60879 4.60879 4.49914 4.60879 4.49914 4.3857 
4.60879 4.49914 4.3857 4.27128 4.60879 4.49914 4.3857 4.27128 4.15881 
4.60879 4.49914 4.3857 4.27128 4.15881 4.05096 4.60879 4.49914 4.3857 
4.27128 4.15881 4.05096 3.94976 4.60879 4.49914 4.3857 4.27128 4.15881 
4.05096 3.94976 3.85646 4.5268 4.40462 4.42689 4.28071 4.29185 4.30523 
4.15881 4.15881 4.15881 4.15881 4.04232 4.03217 4.02011 4.00552 3.98753 
3.93376 3.91515 3.89328 3.86721 3.83566 3.7968 3.83461 3.8095 3.78037 
3.74624 3.70581 3.65733 3.59845 3.7454 3.71564 3.68161 3.64243 3.59698 
3.54386 3.48135 3.40735 3.56428 3.45246 3.52338 3.33203 3.40312 3.47739 
3.20576 3.27463 3.34802 3.42551 3.07742 3.14159 3.21128 3.28647 3.36688 
2.95116 3.00855 3.0719 3.14159 3.21784 3.3006 2.83072 2.88006 2.93517 
2.99672 3.06535 3.14159 3.22575 2.7189 2.7598 2.8058 2.85768 2.9163 
2.98259 3.05743 3.14159 3.56428 3.52338 3.45246 3.47739 3.40312 3.33203 
3.42551 3.34802 3.27463 3.20576 3.36688 3.28647 3.21128 3.14159 3.07742 
3.3006 3.21784 3.14159 3.0719 3.00855 2.95116 3.22575 3.14159 3.06535 
2.99672 2.93517 2.88006 2.83072 3.14159 3.05743 2.98259 2.9163 2.85768 
2.8058 2.7598 2.7189 4.5268 4.42689 4.40462 4.30523 4.29185 4.28071 
4.15881 4.15881 4.15881 4.15881 3.98753 4.00552 4.02011 4.03217 4.04232 
3.7968 3.83566 3.86721 3.89328 3.91515 3.93376 3.59845 3.65733 3.70581 
3.74624 3.78037 3.8095 3.83461 3.40735 3.48135 3.54386 3.59698 3.64243 
3.68161 3.71564 3.7454 4.71239 4.80045 4.62433 4.91556 4.71239 4.50922 
5.06749 4.83537 4.58941 4.35729 5.26596 5.0121 4.71239 4.41268 4.15881 
5.51259 5.26596 4.91556 4.50922 4.15881 3.91219 5.78856 5.60297 5.26596 
4.71239 4.15881 3.82181 3.63622 6.05603 5.97021 5.78856 5.26596 4.15881 
3.63622 3.45456 3.36875 0.227158 0.494626 0.312971 0.770593 0.680215 0.494626 
1.01722 1.01722 1.01722 1.01722 1.2157 1.27109 1.36763 1.5708 2.12437 
1.36763 1.44781 1.5708 1.77397 2.12437 2.64697 1.48273 1.5708 1.69378 
1.8705 2.12437 2.46138 2.82862 1.5708 1.65886 1.77397 1.9259 2.12437 
2.371 2.64697 2.91443 1.75639 1.87857 1.8563 2.00248 1.99133 1.97796 
2.12437 2.12437 2.12437 2.12437 2.24087 2.25101 2.26308 2.27767 2.29565 
2.34943 2.36803 2.38991 2.41597 2.44752 2.48639 2.44857 2.47368 2.50281 
2.53694 2.57738 2.62586 2.68474 2.53778 2.56754 2.60157 2.64076 2.68621 
2.73933 2.80184 2.87583 1.6744 1.6744 1.78405 1.6744 1.78405 1.89748 
1.6744 1.78405 1.89748 2.01191 1.6744 1.78405 1.89748 2.01191 2.12437 
1.6744 1.78405 1.89748 2.01191 2.12437 2.23222 1.6744 1.78405 1.89748 
2.01191 2.12437 2.23222 2.33343 1.6744 1.78405 1.89748 2.01191 2.12437 
2.23222 2.33343 2.42672 1.4672 1.35755 1.4672 1.24411 1.35755 1.4672 
1.12969 1.24411 1.35755 1.4672 1.01722 1.12969 1.24411 1.35755 1.4672 
0.909371 1.01722 1.12969 1.24411 1.35755 1.4672 0.808166 0.909371 1.01722 
1.12969 1.24411 1.35755 1.4672 0.714871 0.808166 0.909371 1.01722 1.12969 
1.24411 1.35755 1.4672 0.603812 0.57405 0.693022 0.540021 0.667908 0.792164 
0.500837 0.638778 0.773562 0.900726 0.455383 0.604649 0.751687 0.890581 1.01722 
0.402264 0.564217 0.725619 0.878514 1.01722 1.13912 0.339753 0.515737 0.694072 
0.863926 1.01722 1.15026 1.26302 0.265762 0.456853 0.655207 0.845941 1.01722 
1.16363 1.28529 1.38521 0.227158 0.312971 0.494626 0.494626 0.680215 0.770593 
1.01722 1.01722 1.01722 1.01722 2.12437 1.5708 1.36763 1.27109 1.2157 
2.64697 2.12437 1.77397 1.5708 1.44781 1.36763 2.82862 2.46138 2.12437 
1.8705 1.69378 1.5708 1.48273 2.91443 2.64697 2.371 2.12437 1.9259 
1.77397 1.65886 1.5708 1.75639 1.8563 1.87857 1.97796 1.99133 2.00248 
2.12437 2.12437 2.12437 2.12437 2.29565 2.27767 2.26308 2.25101 2.24087 
2.48639 2.44752 2.41597 2.38991 2.36803 2.34943 2.68474 2.62586 2.57738 
2.53694 2.50281 2.47368 2.44857 2.87583 2.80184 2.73933 2.68621 2.64076 
2.60157 2.56754 2.53778 5.86049 5.90139 5.97231 5.94739 6.02165 6.09275 
5.99927 6.07676 6.15015 6.21902 6.0579 6.13831 6.2135 0 0.0641696 
6.12418 6.20694 6.28319 0.069689 0.13304 0.190437 6.19903 0 0.0762451 
0.144876 0.206423 0.261531 0.310872 0 0.0841597 0.159004 0.225289 0.283913 
0.335793 0.381792 0.422692 5.86049 5.97231 5.90139 6.09275 6.02165 5.94739 
6.21902 6.15015 6.07676 5.99927 0.0641696 0 6.2135 6.13831 6.0579 
0.190437 0.13304 0.069689 6.28319 6.20694 6.12418 0.310872 0.261531 0.206423 
0.144876 0.0762451 6.28319 6.19903 0.422692 0.381792 0.335793 0.283913 0.225289 
0.159004 0.0841597 0 5.67937 5.70914 5.59016 5.74316 5.61528 5.49102 
5.78235 5.64441 5.50962 5.38246 5.8278 5.67854 5.5315 5.3926 5.26596 
5.88092 5.71897 5.55757 5.40467 5.26596 5.14407 5.94343 5.76745 5.58911 
5.41926 5.26596 5.13292 5.02016 6.01742 5.82633 5.62798 5.43724 5.26596 
5.11955 4.99789 4.89798 1.38521 1.28529 1.26302 1.16363 1.15026 1.13912 
1.01722 1.01722 1.01722 1.01722 0.845941 0.863926 0.878514 0.890581 0.900726 
0.655207 0.694072 0.725619 0.751687 0.773562 0.792164 0.456853 0.515737 0.564217 
0.604649 0.638778 0.667908 0.693022 0.265762 0.339753 0.402264 0.455383 0.500837 
0.540021 0.57405 0.603812 
